ITEM: TIMESTEP energy, energy_weight, force_weight, nsims
0 -274.1603873798309792 1 1 84
ITEM: NUMBER OF ATOMS
4
ITEM: BOX BOUNDS pp pp pp
0.0 4.1320276310915993
0.0 4.1320276310915993
0.0 4.1320276310915993
ITEM: ATOMS id type x y z fx fy fz
1 2 0.0 0.0 0.0 0.0 0.0 0.0
2 2 2.0660121627347472 2.0660121627347472 0.0 0.0 0.0 0.0
3 2 2.0660121627347472 0.0 2.0660121627347472 0.0 0.0 0.0
4 2 0.0 2.0660121627347472 2.0660121627347472 0.0 0.0 0.0
ITEM: TIMESTEP energy, energy_weight, force_weight, nsims
1 -274.082208467435692 1 1 84
ITEM: NUMBER OF ATOMS
4
ITEM: BOX BOUNDS pp pp pp
0.0 4.1772193681561998
0.0 4.1772193681561998
0.0 4.1772193681561998
ITEM: ATOMS id type x y z fx fy fz
1 2 0.0 0.0 0.0 0.0 0.0 0.0
2 2 2.0886080131903526 2.0886080131903526 0.0 0.0 0.0 0.0
3 2 2.0886080131903526 0.0 2.0886080131903526 0.0 0.0 0.0
4 2 0.0 2.0886080131903526 2.0886080131903526 0.0 0.0 0.0
ITEM: TIMESTEP energy, energy_weight, force_weight, nsims
2 -273.9797903479345112 1 1 84
ITEM: NUMBER OF ATOMS
4
ITEM: BOX BOUNDS pp pp pp
0.0 4.2224111052207993
0.0 4.2224111052207993
0.0 4.2224111052207993
ITEM: ATOMS id type x y z fx fy fz
1 2 0.0 0.0 0.0 0.0 0.0 0.0
2 2 2.1112038636459576 2.1112038636459576 0.0 0.0 0.0 0.0
3 2 2.1112038636459576 0.0 2.1112038636459576 0.0 0.0 0.0
4 2 0.0 2.1112038636459576 2.1112038636459576 0.0 0.0 0.0
ITEM: TIMESTEP energy, energy_weight, force_weight, nsims
3 -273.8563240806432192 1 1 84
ITEM: NUMBER OF ATOMS
4
ITEM: BOX BOUNDS pp pp pp
0.0 4.2676557600102996
0.0 4.2676557600102996
0.0 4.2676557600102996
ITEM: ATOMS id type x y z fx fy fz
1 2 0.0 0.0 0.0 0.0 0.0 0.0
2 2 2.1338261729428458 2.1338261729428458 0.0 0.0 0.0 0.0
3 2 2.1338261729428458 0.0 2.1338261729428458 0.0 0.0 0.0
4 2 0.0 2.1338261729428458 2.1338261729428458 0.0 0.0 0.0
ITEM: TIMESTEP energy, energy_weight, force_weight, nsims
4 -273.7147648036337272 1 1 84
ITEM: NUMBER OF ATOMS
4
ITEM: BOX BOUNDS pp pp pp
0.0 4.3128474970749
0.0 4.3128474970749
0.0 4.3128474970749
ITEM: ATOMS id type x y z fx fy fz
1 2 0.0 0.0 0.0 0.0 0.0 0.0
2 2 2.1564220233984513 2.1564220233984513 0.0 0.0 0.0 0.0
3 2 2.1564220233984513 0.0 2.1564220233984513 0.0 0.0 0.0
4 2 0.0 2.1564220233984513 2.1564220233984513 0.0 0.0 0.0
ITEM: TIMESTEP energy, energy_weight, force_weight, nsims
5 -273.5578185362942352 1 1 84
ITEM: NUMBER OF ATOMS
4
ITEM: BOX BOUNDS pp pp pp
0.0 4.3580392341394996
0.0 4.3580392341394996
0.0 4.3580392341394996
ITEM: ATOMS id type x y z fx fy fz
1 2 0.0 0.0 0.0 0.0 0.0 0.0
2 2 2.1790178738540562 2.1790178738540562 0.0 0.0 0.0 0.0
3 2 2.1790178738540562 0.0 2.1790178738540562 0.0 0.0 0.0
4 2 0.0 2.1790178738540562 2.1790178738540562 0.0 0.0 0.0
ITEM: TIMESTEP energy, energy_weight, force_weight, nsims
6 -273.3879575536664676 1 1 84
ITEM: NUMBER OF ATOMS
4
ITEM: BOX BOUNDS pp pp pp
0.0 4.4032309712041
0.0 4.4032309712041
0.0 4.4032309712041
ITEM: ATOMS id type x y z fx fy fz
1 2 4.4032309712041e-07 4.4032309712041e-07 4.4032309712041e-07 0.0 0.0 0.0
2 2 2.2016141646327587 2.2016141646327587 4.4032309712041e-07 0.0 0.0 0.0
3 2 2.2016141646327587 4.4032309712041e-07 2.2016141646327587 0.0 0.0 0.0
4 2 4.4032309712041e-07 2.2016141646327587 2.2016141646327587 0.0 0.0 0.0
ITEM: TIMESTEP energy, energy_weight, force_weight, nsims
7 -273.2073403854700472 1 1 84
ITEM: NUMBER OF ATOMS
4
ITEM: BOX BOUNDS pp pp pp
0.0 4.4484227082686996
0.0 4.4484227082686996
0.0 4.4484227082686996
ITEM: ATOMS id type x y z fx fy fz
1 2 4.4484227082686996e-07 4.4484227082686996e-07 4.4484227082686996e-07 0.0 0.0 0.0
2 2 2.2242100196075372 2.2242100196075372 4.4484227082686996e-07 0.0 0.0 0.0
3 2 2.2242100196075372 4.4484227082686996e-07 2.2242100196075372 0.0 0.0 0.0
4 2 4.4484227082686996e-07 2.2242100196075372 2.2242100196075372 0.0 0.0 0.0
ITEM: TIMESTEP energy, energy_weight, force_weight, nsims
8 -273.0177583460629196 1 1 84
ITEM: NUMBER OF ATOMS
4
ITEM: BOX BOUNDS pp pp pp
0.0 4.4936144453332992
0.0 4.4936144453332992
0.0 4.4936144453332992
ITEM: ATOMS id type x y z fx fy fz
1 2 -4.4936144453332992e-07 -4.4936144453332992e-07 -4.4936144453332992e-07 0.0 0.0 0.0
2 2 2.2468058745823161 2.2468058745823161 -4.4936144453332992e-07 0.0 0.0 0.0
3 2 2.2468058745823161 -4.4936144453332992e-07 2.2468058745823161 0.0 0.0 0.0
4 2 -4.4936144453332992e-07 2.2468058745823161 2.2468058745823161 0.0 0.0 0.0
ITEM: TIMESTEP energy, energy_weight, force_weight, nsims
9 -272.8207431548011072 1 1 84
ITEM: NUMBER OF ATOMS
4
ITEM: BOX BOUNDS pp pp pp
0.0 4.5388061823978996
0.0 4.5388061823978996
0.0 4.5388061823978996
ITEM: ATOMS id type x y z fx fy fz
1 2 -4.5388061823978996e-07 -4.5388061823978996e-07 -4.5388061823978996e-07 0.0 0.0 0.0
2 2 2.269401729557095 2.269401729557095 -4.5388061823978996e-07 0.0 0.0 0.0
3 2 2.269401729557095 -4.5388061823978996e-07 2.269401729557095 0.0 0.0 0.0
4 2 -4.5388061823978996e-07 2.269401729557095 2.269401729557095 0.0 0.0 0.0
ITEM: TIMESTEP energy, energy_weight, force_weight, nsims
10 -272.6176100658164500 1 1 84
ITEM: NUMBER OF ATOMS
4
ITEM: BOX BOUNDS pp pp pp
0.0 4.5839979194624992
0.0 4.5839979194624992
0.0 4.5839979194624992
ITEM: ATOMS id type x y z fx fy fz
1 2 0.0 0.0 0.0 0.0 0.0 0.0
2 2 2.2919975845318739 2.2919975845318739 0.0 0.0 0.0 0.0
3 2 2.2919975845318739 0.0 2.2919975845318739 0.0 0.0 0.0
4 2 0.0 2.2919975845318739 2.2919975845318739 0.0 0.0 0.0
ITEM: TIMESTEP energy, energy_weight, force_weight, nsims
11 -272.4094865758492576 1 1 84
ITEM: NUMBER OF ATOMS
4
ITEM: BOX BOUNDS pp pp pp
0.0 4.6291896565270996
0.0 4.6291896565270996
0.0 4.6291896565270996
ITEM: ATOMS id type x y z fx fy fz
1 2 0.0 0.0 0.0 0.0 0.0 0.0
2 2 2.3145934395066528 2.3145934395066528 0.0 0.0 0.0 0.0
3 2 2.3145934395066528 0.0 2.3145934395066528 0.0 0.0 0.0
4 2 0.0 2.3145934395066528 2.3145934395066528 0.0 0.0 0.0
ITEM: TIMESTEP energy, energy_weight, force_weight, nsims
12 -272.197367254849212 1 1 84
ITEM: NUMBER OF ATOMS
4
ITEM: BOX BOUNDS pp pp pp
0.0 4.6743813935916992
0.0 4.6743813935916992
0.0 4.6743813935916992
ITEM: ATOMS id type x y z fx fy fz
1 2 0.0 0.0 0.0 0.0 0.0 0.0
2 2 2.3371892944814317 2.3371892944814317 0.0 0.0 0.0 0.0
3 2 2.3371892944814317 0.0 2.3371892944814317 0.0 0.0 0.0
4 2 0.0 2.3371892944814317 2.3371892944814317 0.0 0.0 0.0
ITEM: TIMESTEP energy, energy_weight, force_weight, nsims
13 -271.9821491205560736 1 1 84
ITEM: NUMBER OF ATOMS
4
ITEM: BOX BOUNDS pp pp pp
0.0 4.7195731306562996
0.0 4.7195731306562996
0.0 4.7195731306562996
ITEM: ATOMS id type x y z fx fy fz
1 2 0.0 0.0 0.0 0.0 0.0 0.0
2 2 2.3597851494562106 2.3597851494562106 0.0 0.0 0.0 0.0
3 2 2.3597851494562106 0.0 2.3597851494562106 0.0 0.0 0.0
4 2 0.0 2.3597851494562106 2.3597851494562106 0.0 0.0 0.0
ITEM: TIMESTEP energy, energy_weight, force_weight, nsims
14 -271.764639121584196 1 1 84
ITEM: NUMBER OF ATOMS
4
ITEM: BOX BOUNDS pp pp pp
0.0 4.7647648677208992
0.0 4.7647648677208992
0.0 4.7647648677208992
ITEM: ATOMS id type x y z fx fy fz
1 2 4.7647648677208992e-07 4.7647648677208992e-07 4.7647648677208992e-07 0.0 0.0 0.0
2 2 2.382381004430989 2.382381004430989 4.7647648677208992e-07 0.0 0.0 0.0
3 2 2.382381004430989 4.7647648677208992e-07 2.382381004430989 0.0 0.0 0.0
4 2 4.7647648677208992e-07 2.382381004430989 2.382381004430989 0.0 0.0 0.0
ITEM: TIMESTEP energy, energy_weight, force_weight, nsims
15 -271.5455571306563912 1 1 84
ITEM: NUMBER OF ATOMS
4
ITEM: BOX BOUNDS pp pp pp
0.0 4.8099566047854996
0.0 4.8099566047854996
0.0 4.8099566047854996
ITEM: ATOMS id type x y z fx fy fz
1 2 4.8099566047854996e-07 4.8099566047854996e-07 4.8099566047854996e-07 0.0 0.0 0.0
2 2 2.4049768594057684 2.4049768594057684 4.8099566047854996e-07 0.0 0.0 0.0
3 2 2.4049768594057684 4.8099566047854996e-07 2.4049768594057684 0.0 0.0 0.0
4 2 4.8099566047854996e-07 2.4049768594057684 2.4049768594057684 0.0 0.0 0.0
ITEM: TIMESTEP energy, energy_weight, force_weight, nsims
16 -271.3255506386605592 1 1 84
ITEM: NUMBER OF ATOMS
4
ITEM: BOX BOUNDS pp pp pp
0.0 4.8551483418500992
0.0 4.8551483418500992
0.0 4.8551483418500992
ITEM: ATOMS id type x y z fx fy fz
1 2 -4.8551483418500982e-07 -4.8551483418500982e-07 -4.8551483418500982e-07 0.0 0.0 0.0
2 2 2.4275727143805468 2.4275727143805468 -4.8551483418500982e-07 0.0 0.0 0.0
3 2 2.4275727143805468 -4.8551483418500982e-07 2.4275727143805468 0.0 0.0 0.0
4 2 -4.8551483418500982e-07 2.4275727143805468 2.4275727143805468 0.0 0.0 0.0
ITEM: TIMESTEP energy, energy_weight, force_weight, nsims
17 -271.1052142106690896 1 1 84
ITEM: NUMBER OF ATOMS
4
ITEM: BOX BOUNDS pp pp pp
0.0 4.9003400789147006
0.0 4.9003400789147006
0.0 4.9003400789147006
ITEM: ATOMS id type x y z fx fy fz
1 2 0.0 0.0 0.0 0.0 0.0 0.0
2 2 2.4501685693553266 2.4501685693553266 0.0 0.0 0.0 0.0
3 2 2.4501685693553266 0.0 2.4501685693553266 0.0 0.0 0.0
4 2 0.0 2.4501685693553266 2.4501685693553266 0.0 0.0 0.0
ITEM: TIMESTEP energy, energy_weight, force_weight, nsims
18 -270.8850975132478424 1 1 84
ITEM: NUMBER OF ATOMS
4
ITEM: BOX BOUNDS pp pp pp
0.0 4.9455318159793
0.0 4.9455318159793
0.0 4.9455318159793
ITEM: ATOMS id type x y z fx fy fz
1 2 0.0 0.0 0.0 0.0 0.0 0.0
2 2 2.472764424330105 2.472764424330105 0.0 0.0 0.0 0.0
3 2 2.472764424330105 0.0 2.472764424330105 0.0 0.0 0.0
4 2 0.0 2.472764424330105 2.472764424330105 0.0 0.0 0.0
ITEM: TIMESTEP energy, energy_weight, force_weight, nsims
19 -270.6656955184183744 1 1 84
ITEM: NUMBER OF ATOMS
4
ITEM: BOX BOUNDS pp pp pp
0.0 4.9907235530438996
0.0 4.9907235530438996
0.0 4.9907235530438996
ITEM: ATOMS id type x y z fx fy fz
1 2 0.0 0.0 0.0 0.0 0.0 0.0
2 2 2.495360279304884 2.495360279304884 0.0 0.0 0.0 0.0
3 2 2.495360279304884 0.0 2.495360279304884 0.0 0.0 0.0
4 2 0.0 2.495360279304884 2.495360279304884 0.0 0.0 0.0
ITEM: TIMESTEP energy, energy_weight, force_weight, nsims
20 -270.447437347059008 1 1 84
ITEM: NUMBER OF ATOMS
4
ITEM: BOX BOUNDS pp pp pp
0.0 5.0359152901085
0.0 5.0359152901085
0.0 5.0359152901085
ITEM: ATOMS id type x y z fx fy fz
1 2 0.0 0.0 0.0 0.0 0.0 0.0
2 2 2.5179561342796628 2.5179561342796628 0.0 0.0 0.0 0.0
3 2 2.5179561342796628 0.0 2.5179561342796628 0.0 0.0 0.0
4 2 0.0 2.5179561342796628 2.5179561342796628 0.0 0.0 0.0
ITEM: TIMESTEP energy, energy_weight, force_weight, nsims
21 -270.23068164299832 1 1 84
ITEM: NUMBER OF ATOMS
4
ITEM: BOX BOUNDS pp pp pp
0.0 5.0811070271730996
0.0 5.0811070271730996
0.0 5.0811070271730996
ITEM: ATOMS id type x y z fx fy fz
1 2 5.0811070271730996e-07 5.0811070271730996e-07 5.0811070271730996e-07 0.0 0.0 0.0
2 2 2.5405519892544418 2.5405519892544418 5.0811070271730996e-07 0.0 0.0 0.0
3 2 2.5405519892544418 5.0811070271730996e-07 2.5405519892544418 0.0 0.0 0.0
4 2 5.0811070271730996e-07 2.5405519892544418 2.5405519892544418 0.0 0.0 0.0
ITEM: TIMESTEP energy, energy_weight, force_weight, nsims
22 -270.0157222873705792 1 1 84
ITEM: NUMBER OF ATOMS
4
ITEM: BOX BOUNDS pp pp pp
0.0 5.1262987642377
0.0 5.1262987642377
0.0 5.1262987642377
ITEM: ATOMS id type x y z fx fy fz
1 2 5.1262987642377e-07 5.1262987642377e-07 5.1262987642377e-07 0.0 0.0 0.0
2 2 2.5631478442292206 2.5631478442292206 5.1262987642377e-07 0.0 0.0 0.0
3 2 2.5631478442292206 5.1262987642377e-07 2.5631478442292206 0.0 0.0 0.0
4 2 5.1262987642377e-07 2.5631478442292206 2.5631478442292206 0.0 0.0 0.0
ITEM: TIMESTEP energy, energy_weight, force_weight, nsims
23 -269.80280064366292 1 1 84
ITEM: NUMBER OF ATOMS
4
ITEM: BOX BOUNDS pp pp pp
0.0 5.1714905013022996
0.0 5.1714905013022996
0.0 5.1714905013022996
ITEM: ATOMS id type x y z fx fy fz
1 2 -5.1714905013022996e-07 -5.1714905013022996e-07 -5.1714905013022996e-07 0.0 0.0 0.0
2 2 2.5857436992039996 2.5857436992039996 -5.1714905013022996e-07 0.0 0.0 0.0
3 2 2.5857436992039996 -5.1714905013022996e-07 2.5857436992039996 0.0 0.0 0.0
4 2 -5.1714905013022996e-07 2.5857436992039996 2.5857436992039996 0.0 0.0 0.0
ITEM: TIMESTEP energy, energy_weight, force_weight, nsims
24 -269.5921194354353932 1 1 84
ITEM: NUMBER OF ATOMS
4
ITEM: BOX BOUNDS pp pp pp
0.0 5.2167351560917998
0.0 5.2167351560917998
0.0 5.2167351560917998
ITEM: ATOMS id type x y z fx fy fz
1 2 -5.216735156091799e-07 -5.216735156091799e-07 -5.216735156091799e-07 0.0 0.0 0.0
2 2 2.608366013025353 2.608366013025353 -5.216735156091799e-07 0.0 0.0 0.0
3 2 2.608366013025353 -5.216735156091799e-07 2.608366013025353 0.0 0.0 0.0
4 2 -5.216735156091799e-07 2.608366013025353 2.608366013025353 0.0 0.0 0.0
ITEM: TIMESTEP energy, energy_weight, force_weight, nsims
25 -269.3838540389760964 1 1 84
ITEM: NUMBER OF ATOMS
4
ITEM: BOX BOUNDS pp pp pp
0.0 5.2619268931563994
0.0 5.2619268931563994
0.0 5.2619268931563994
ITEM: ATOMS id type x y z fx fy fz
1 2 0.0 0.0 0.0 0.0 0.0 0.0
2 2 2.630961868000132 2.630961868000132 0.0 0.0 0.0 0.0
3 2 2.630961868000132 0.0 2.630961868000132 0.0 0.0 0.0
4 2 0.0 2.630961868000132 2.630961868000132 0.0 0.0 0.0
ITEM: TIMESTEP energy, energy_weight, force_weight, nsims
26 -269.1781625514506688 1 1 84
ITEM: NUMBER OF ATOMS
4
ITEM: BOX BOUNDS pp pp pp
0.0 5.3071186302209999
0.0 5.3071186302209999
0.0 5.3071186302209999
ITEM: ATOMS id type x y z fx fy fz
1 2 0.0 0.0 0.0 0.0 0.0 0.0
2 2 2.6535577229749108 2.6535577229749108 0.0 0.0 0.0 0.0
3 2 2.6535577229749108 0.0 2.6535577229749108 0.0 0.0 0.0
4 2 0.0 2.6535577229749108 2.6535577229749108 0.0 0.0 0.0
ITEM: TIMESTEP energy, energy_weight, force_weight, nsims
27 -268.9751902807532816 1 1 84
ITEM: NUMBER OF ATOMS
4
ITEM: BOX BOUNDS pp pp pp
0.0 5.3523103672855994
0.0 5.3523103672855994
0.0 5.3523103672855994
ITEM: ATOMS id type x y z fx fy fz
1 2 0.0 0.0 0.0 0.0 0.0 0.0
2 2 2.6761535779496898 2.6761535779496898 0.0 0.0 0.0 0.0
3 2 2.6761535779496898 0.0 2.6761535779496898 0.0 0.0 0.0
4 2 0.0 2.6761535779496898 2.6761535779496898 0.0 0.0 0.0
ITEM: TIMESTEP energy, energy_weight, force_weight, nsims
28 -268.7750726026842472 1 1 84
ITEM: NUMBER OF ATOMS
4
ITEM: BOX BOUNDS pp pp pp
0.0 5.3975021043501999
0.0 5.3975021043501999
0.0 5.3975021043501999
ITEM: ATOMS id type x y z fx fy fz
1 2 5.3975021043501999e-07 5.3975021043501999e-07 5.3975021043501999e-07 0.0 0.0 0.0
2 2 2.698749432924469 2.698749432924469 5.3975021043501999e-07 0.0 0.0 0.0
3 2 2.698749432924469 5.3975021043501999e-07 2.698749432924469 0.0 0.0 0.0
4 2 5.3975021043501999e-07 2.698749432924469 2.698749432924469 0.0 0.0 0.0
ITEM: TIMESTEP energy, energy_weight, force_weight, nsims
29 -268.5779344167255544 1 1 84
ITEM: NUMBER OF ATOMS
4
ITEM: BOX BOUNDS pp pp pp
0.0 5.4426938414147994
0.0 5.4426938414147994
0.0 5.4426938414147994
ITEM: ATOMS id type x y z fx fy fz
1 2 5.4426938414147994e-07 5.4426938414147994e-07 5.4426938414147994e-07 0.0 0.0 0.0
2 2 2.721345287899247 2.721345287899247 5.4426938414147994e-07 0.0 0.0 0.0
3 2 2.721345287899247 5.4426938414147994e-07 2.721345287899247 0.0 0.0 0.0
4 2 5.4426938414147994e-07 2.721345287899247 2.721345287899247 0.0 0.0 0.0
ITEM: TIMESTEP energy, energy_weight, force_weight, nsims
30 -268.3838897378728348 1 1 84
ITEM: NUMBER OF ATOMS
4
ITEM: BOX BOUNDS pp pp pp
0.0 5.487885578479399
0.0 5.487885578479399
0.0 5.487885578479399
ITEM: ATOMS id type x y z fx fy fz
1 2 -5.4878855784793982e-07 -5.4878855784793982e-07 -5.4878855784793982e-07 0.0 0.0 0.0
2 2 2.743941142874026 2.743941142874026 -5.4878855784793982e-07 0.0 0.0 0.0
3 2 2.743941142874026 -5.4878855784793982e-07 2.743941142874026 0.0 0.0 0.0
4 2 -5.4878855784793982e-07 2.743941142874026 2.743941142874026 0.0 0.0 0.0
ITEM: TIMESTEP energy, energy_weight, force_weight, nsims
31 -268.1930384312892100 1 1 84
ITEM: NUMBER OF ATOMS
4
ITEM: BOX BOUNDS pp pp pp
0.0 5.5330773155439994
0.0 5.5330773155439994
0.0 5.5330773155439994
ITEM: ATOMS id type x y z fx fy fz
1 2 -5.5330773155439994e-07 -5.5330773155439994e-07 -5.5330773155439994e-07 0.0 0.0 0.0
2 2 2.7665369978488048 2.7665369978488048 -5.5330773155439994e-07 0.0 0.0 0.0
3 2 2.7665369978488048 -5.5330773155439994e-07 2.7665369978488048 0.0 0.0 0.0
4 2 -5.5330773155439994e-07 2.7665369978488048 2.7665369978488048 0.0 0.0 0.0
ITEM: TIMESTEP energy, energy_weight, force_weight, nsims
32 -268.0054649878008492 1 1 84
ITEM: NUMBER OF ATOMS
4
ITEM: BOX BOUNDS pp pp pp
0.0 5.578269052608599
0.0 5.578269052608599
0.0 5.578269052608599
ITEM: ATOMS id type x y z fx fy fz
1 2 0.0 0.0 0.0 0.0 0.0 0.0
2 2 2.7891328528235838 2.7891328528235838 0.0 0.0 0.0 0.0
3 2 2.7891328528235838 0.0 2.7891328528235838 0.0 0.0 0.0
4 2 0.0 2.7891328528235838 2.7891328528235838 0.0 0.0 0.0
ITEM: TIMESTEP energy, energy_weight, force_weight, nsims
33 -267.8212362109433688 1 1 84
ITEM: NUMBER OF ATOMS
4
ITEM: BOX BOUNDS pp pp pp
0.0 5.6234607896731994
0.0 5.6234607896731994
0.0 5.6234607896731994
ITEM: ATOMS id type x y z fx fy fz
1 2 0.0 0.0 0.0 0.0 0.0 0.0
2 2 2.8117287077983626 2.8117287077983626 0.0 0.0 0.0 0.0
3 2 2.8117287077983626 0.0 2.8117287077983626 0.0 0.0 0.0
4 2 0.0 2.8117287077983626 2.8117287077983626 0.0 0.0 0.0
ITEM: TIMESTEP energy, energy_weight, force_weight, nsims
34 -267.6404008087935152 1 1 84
ITEM: NUMBER OF ATOMS
4
ITEM: BOX BOUNDS pp pp pp
0.0 5.668652526737799
0.0 5.668652526737799
0.0 5.668652526737799
ITEM: ATOMS id type x y z fx fy fz
1 2 0.0 0.0 0.0 0.0 0.0 0.0
2 2 2.8343245627731416 2.8343245627731416 0.0 0.0 0.0 0.0
3 2 2.8343245627731416 0.0 2.8343245627731416 0.0 0.0 0.0
4 2 0.0 2.8343245627731416 2.8343245627731416 0.0 0.0 0.0
ITEM: TIMESTEP energy, energy_weight, force_weight, nsims
35 -267.4629893939695648 1 1 84
ITEM: NUMBER OF ATOMS
4
ITEM: BOX BOUNDS pp pp pp
0.0 5.7138442638023994
0.0 5.7138442638023994
0.0 5.7138442638023994
ITEM: ATOMS id type x y z fx fy fz
1 2 0.0 0.0 0.0 0.0 0.0 0.0
2 2 2.8569204177479204 2.8569204177479204 0.0 0.0 0.0 0.0
3 2 2.8569204177479204 0.0 2.8569204177479204 0.0 0.0 0.0
4 2 0.0 2.8569204177479204 2.8569204177479204 0.0 0.0 0.0
ITEM: TIMESTEP energy, energy_weight, force_weight, nsims
36 -267.2890163884160304 1 1 84
ITEM: NUMBER OF ATOMS
4
ITEM: BOX BOUNDS pp pp pp
0.0 5.759036000866999
0.0 5.759036000866999
0.0 5.759036000866999
ITEM: ATOMS id type x y z fx fy fz
1 2 5.759036000866999e-07 5.759036000866999e-07 5.759036000866999e-07 0.0 0.0 0.0
2 2 2.8795162727226994 2.8795162727226994 5.759036000866999e-07 0.0 0.0 0.0
3 2 2.8795162727226994 5.759036000866999e-07 2.8795162727226994 0.0 0.0 0.0
4 2 5.759036000866999e-07 2.8795162727226994 2.8795162727226994 0.0 0.0 0.0
ITEM: TIMESTEP energy, energy_weight, force_weight, nsims
37 -267.1184820642450864 1 1 84
ITEM: NUMBER OF ATOMS
4
ITEM: BOX BOUNDS pp pp pp
0.0 5.8042277379316004
0.0 5.8042277379316004
0.0 5.8042277379316004
ITEM: ATOMS id type x y z fx fy fz
1 2 -5.8042277379315994e-07 -5.8042277379315994e-07 -5.8042277379315994e-07 0.0 0.0 0.0
2 2 2.9021121276974786 2.9021121276974786 -5.8042277379315994e-07 0.0 0.0 0.0
3 2 2.9021121276974786 -5.8042277379315994e-07 2.9021121276974786 0.0 0.0 0.0
4 2 -5.8042277379315994e-07 2.9021121276974786 2.9021121276974786 0.0 0.0 0.0
ITEM: TIMESTEP energy, energy_weight, force_weight, nsims
38 -266.9513747206337376 1 1 84
ITEM: NUMBER OF ATOMS
4
ITEM: BOX BOUNDS pp pp pp
0.0 5.8494194749962
0.0 5.8494194749962
0.0 5.8494194749962
ITEM: ATOMS id type x y z fx fy fz
1 2 -5.8494194749962e-07 -5.8494194749962e-07 -5.8494194749962e-07 0.0 0.0 0.0
2 2 2.9247079826722576 2.9247079826722576 -5.8494194749962e-07 0.0 0.0 0.0
3 2 2.9247079826722576 -5.8494194749962e-07 2.9247079826722576 0.0 0.0 0.0
4 2 -5.8494194749962e-07 2.9247079826722576 2.9247079826722576 0.0 0.0 0.0
ITEM: TIMESTEP energy, energy_weight, force_weight, nsims
39 -266.7876735410017096 1 1 84
ITEM: NUMBER OF ATOMS
4
ITEM: BOX BOUNDS pp pp pp
0.0 5.8946112120608004
0.0 5.8946112120608004
0.0 5.8946112120608004
ITEM: ATOMS id type x y z fx fy fz
1 2 0.0 0.0 0.0 0.0 0.0 0.0
2 2 2.9473038376470364 2.9473038376470364 0.0 0.0 0.0 0.0
3 2 2.9473038376470364 0.0 2.9473038376470364 0.0 0.0 0.0
4 2 0.0 2.9473038376470364 2.9473038376470364 0.0 0.0 0.0
ITEM: TIMESTEP energy, energy_weight, force_weight, nsims
40 -266.627350089628124 1 1 84
ITEM: NUMBER OF ATOMS
4
ITEM: BOX BOUNDS pp pp pp
0.0 5.9398029491253998
0.0 5.9398029491253998
0.0 5.9398029491253998
ITEM: ATOMS id type x y z fx fy fz
1 2 0.0 0.0 0.0 0.0 0.0 0.0
2 2 2.9698996926218154 2.9698996926218154 0.0 0.0 0.0 0.0
3 2 2.9698996926218154 0.0 2.9698996926218154 0.0 0.0 0.0
4 2 0.0 2.9698996926218154 2.9698996926218154 0.0 0.0 0.0
ITEM: TIMESTEP energy, energy_weight, force_weight, nsims
41 -266.4703698082685152 1 1 84
ITEM: NUMBER OF ATOMS
4
ITEM: BOX BOUNDS pp pp pp
0.0 5.9849946861899994
0.0 5.9849946861899994
0.0 5.9849946861899994
ITEM: ATOMS id type x y z fx fy fz
1 2 0.0 0.0 0.0 0.0 0.0 0.0
2 2 2.9924955475965938 2.9924955475965938 0.0 0.0 0.0 0.0
3 2 2.9924955475965938 0.0 2.9924955475965938 0.0 0.0 0.0
4 2 0.0 2.9924955475965938 2.9924955475965938 0.0 0.0 0.0
ITEM: TIMESTEP energy, energy_weight, force_weight, nsims
42 -266.3166933767155344 1 1 84
ITEM: NUMBER OF ATOMS
4
ITEM: BOX BOUNDS pp pp pp
0.0 6.0301864232545999
0.0 6.0301864232545999
0.0 6.0301864232545999
ITEM: ATOMS id type x y z fx fy fz
1 2 0.0 0.0 0.0 0.0 0.0 0.0
2 2 3.0150914025713731 3.0150914025713731 0.0 0.0 0.0 0.0
3 2 3.0150914025713731 0.0 3.0150914025713731 0.0 0.0 0.0
4 2 0.0 3.0150914025713731 3.0150914025713731 0.0 0.0 0.0
ITEM: TIMESTEP energy, energy_weight, force_weight, nsims
43 -266.1662769849111784 1 1 84
ITEM: NUMBER OF ATOMS
4
ITEM: BOX BOUNDS pp pp pp
0.0 6.0753781603191994
0.0 6.0753781603191994
0.0 6.0753781603191994
ITEM: ATOMS id type x y z fx fy fz
1 2 -6.0753781603191985e-07 -6.0753781603191985e-07 -6.0753781603191985e-07 0.0 0.0 0.0
2 2 3.0376872575461515 3.0376872575461515 -6.0753781603191985e-07 0.0 0.0 0.0
3 2 3.0376872575461515 -6.0753781603191985e-07 3.0376872575461515 0.0 0.0 0.0
4 2 -6.0753781603191985e-07 3.0376872575461515 3.0376872575461515 0.0 0.0 0.0
ITEM: TIMESTEP energy, energy_weight, force_weight, nsims
44 -266.019073285339516 1 1 84
ITEM: NUMBER OF ATOMS
4
ITEM: BOX BOUNDS pp pp pp
0.0 6.1206228151086997
0.0 6.1206228151086997
0.0 6.1206228151086997
ITEM: ATOMS id type x y z fx fy fz
1 2 -3.6723736890652204e-06 -3.6723736890652204e-06 -3.6723736890652204e-06 0.0 0.0 0.0
2 2 3.060309571367505 3.060309571367505 -3.6723736890652204e-06 0.0 0.0 0.0
3 2 3.060309571367505 -3.6723736890652204e-06 3.060309571367505 0.0 0.0 0.0
4 2 -3.6723736890652204e-06 3.060309571367505 3.060309571367505 0.0 0.0 0.0
ITEM: TIMESTEP energy, energy_weight, force_weight, nsims
45 -265.875031529082264 1 1 84
ITEM: NUMBER OF ATOMS
4
ITEM: BOX BOUNDS pp pp pp
0.0 6.1658145521732992
0.0 6.1658145521732992
0.0 6.1658145521732992
ITEM: ATOMS id type x y z fx fy fz
1 2 3.6994887313039794e-06 3.6994887313039794e-06 3.6994887313039794e-06 0.0 0.0 0.0
2 2 3.0829060429237392 3.0829060429237392 3.6994887313039794e-06 0.0 0.0 0.0
3 2 3.0829060429237392 3.6994887313039794e-06 3.0829060429237392 0.0 0.0 0.0
4 2 3.6994887313039794e-06 3.0829060429237392 3.0829060429237392 0.0 0.0 0.0
ITEM: TIMESTEP energy, energy_weight, force_weight, nsims
46 -265.7340982460999044 1 1 84
ITEM: NUMBER OF ATOMS
4
ITEM: BOX BOUNDS pp pp pp
0.0 6.2110062892378997
0.0 6.2110062892378997
0.0 6.2110062892378997
ITEM: ATOMS id type x y z fx fy fz
1 2 6.2110062892378997e-07 6.2110062892378997e-07 6.2110062892378997e-07 0.0 0.0 0.0
2 2 3.105501902417692 3.105501902417692 6.2110062892378997e-07 0.0 0.0 0.0
3 2 3.105501902417692 6.2110062892378997e-07 3.105501902417692 0.0 0.0 0.0
4 2 6.2110062892378997e-07 3.105501902417692 3.105501902417692 0.0 0.0 0.0
ITEM: TIMESTEP energy, energy_weight, force_weight, nsims
47 -265.5962175173431776 1 1 84
ITEM: NUMBER OF ATOMS
4
ITEM: BOX BOUNDS pp pp pp
0.0 6.2561980263024992
0.0 6.2561980263024992
0.0 6.2561980263024992
ITEM: ATOMS id type x y z fx fy fz
1 2 -1.8768594078907498e-06 -1.8768594078907498e-06 -1.8768594078907498e-06 0.0 0.0 0.0
2 2 3.1280977619116444 3.1280977619116444 -1.8768594078907498e-06 0.0 0.0 0.0
3 2 3.1280977619116444 -1.8768594078907498e-06 3.1280977619116444 0.0 0.0 0.0
4 2 -1.8768594078907498e-06 3.1280977619116444 3.1280977619116444 0.0 0.0 0.0
ITEM: TIMESTEP energy, energy_weight, force_weight, nsims
48 -265.4613316550339164 1 1 84
ITEM: NUMBER OF ATOMS
4
ITEM: BOX BOUNDS pp pp pp
0.0 6.3013897633670997
0.0 6.3013897633670997
0.0 6.3013897633670997
ITEM: ATOMS id type x y z fx fy fz
1 2 -5.0411118106936792e-06 -5.0411118106936792e-06 -5.0411118106936792e-06 0.0 0.0 0.0
2 2 3.1506936214055972 3.1506936214055972 -5.0411118106936792e-06 0.0 0.0 0.0
3 2 3.1506936214055972 -5.0411118106936792e-06 3.1506936214055972 0.0 0.0 0.0
4 2 -5.0411118106936792e-06 3.1506936214055972 3.1506936214055972 0.0 0.0 0.0
ITEM: TIMESTEP energy, energy_weight, force_weight, nsims
49 -265.3293816108331384 1 1 84
ITEM: NUMBER OF ATOMS
4
ITEM: BOX BOUNDS pp pp pp
0.0 6.3465815004316992
0.0 6.3465815004316992
0.0 6.3465815004316992
ITEM: ATOMS id type x y z fx fy fz
1 2 1.9039744501295094e-06 1.9039744501295094e-06 1.9039744501295094e-06 0.0 0.0 0.0
2 2 3.1732894808995496 3.1732894808995496 1.9039744501295094e-06 0.0 0.0 0.0
3 2 3.1732894808995496 1.9039744501295094e-06 3.1732894808995496 0.0 0.0 0.0
4 2 1.9039744501295094e-06 3.1732894808995496 3.1732894808995496 0.0 0.0 0.0
ITEM: TIMESTEP energy, energy_weight, force_weight, nsims
50 -265.2003071118970752 1 1 84
ITEM: NUMBER OF ATOMS
4
ITEM: BOX BOUNDS pp pp pp
0.0 6.3917732374962997
0.0 6.3917732374962997
0.0 6.3917732374962997
ITEM: ATOMS id type x y z fx fy fz
1 2 -6.3917732374962997e-07 -6.3917732374962997e-07 -6.3917732374962997e-07 0.0 0.0 0.0
2 2 3.1958853403935024 3.1958853403935024 -6.3917732374962997e-07 0.0 0.0 0.0
3 2 3.1958853403935024 -6.3917732374962997e-07 3.1958853403935024 0.0 0.0 0.0
4 2 -6.3917732374962997e-07 3.1958853403935024 3.1958853403935024 0.0 0.0 0.0
ITEM: TIMESTEP energy, energy_weight, force_weight, nsims
51 -265.0740476132698404 1 1 84
ITEM: NUMBER OF ATOMS
4
ITEM: BOX BOUNDS pp pp pp
0.0 6.4369649745608992
0.0 6.4369649745608992
0.0 6.4369649745608992
ITEM: ATOMS id type x y z fx fy fz
1 2 -3.8621789847365392e-06 -3.8621789847365392e-06 -3.8621789847365392e-06 0.0 0.0 0.0
2 2 3.2184811998874547 3.2184811998874547 -3.8621789847365392e-06 0.0 0.0 0.0
3 2 3.2184811998874547 -3.8621789847365392e-06 3.2184811998874547 0.0 0.0 0.0
4 2 -3.8621789847365392e-06 3.2184811998874547 3.2184811998874547 0.0 0.0 0.0
ITEM: TIMESTEP energy, energy_weight, force_weight, nsims
52 -264.9505424339395176 1 1 84
ITEM: NUMBER OF ATOMS
4
ITEM: BOX BOUNDS pp pp pp
0.0 6.4821567116254988
0.0 6.4821567116254988
0.0 6.4821567116254988
ITEM: ATOMS id type x y z fx fy fz
1 2 3.8892940269752994e-06 3.8892940269752994e-06 3.8892940269752994e-06 0.0 0.0 0.0
2 2 3.2410770593814071 3.2410770593814071 3.8892940269752994e-06 0.0 0.0 0.0
3 2 3.2410770593814071 3.8892940269752994e-06 3.2410770593814071 0.0 0.0 0.0
4 2 3.8892940269752994e-06 3.2410770593814071 3.2410770593814071 0.0 0.0 0.0
ITEM: TIMESTEP energy, energy_weight, force_weight, nsims
53 -264.8297307568379324 1 1 84
ITEM: NUMBER OF ATOMS
4
ITEM: BOX BOUNDS pp pp pp
0.0 6.5273484486900992
0.0 6.5273484486900992
0.0 6.5273484486900992
ITEM: ATOMS id type x y z fx fy fz
1 2 6.5273484486900984e-07 6.5273484486900984e-07 6.5273484486900984e-07 0.0 0.0 0.0
2 2 3.26367291887536 3.26367291887536 6.5273484486900984e-07 0.0 0.0 0.0
3 2 3.26367291887536 6.5273484486900984e-07 3.26367291887536 0.0 0.0 0.0
4 2 6.5273484486900984e-07 3.26367291887536 3.26367291887536 0.0 0.0 0.0
ITEM: TIMESTEP energy, energy_weight, force_weight, nsims
54 -264.7115521730653428 1 1 84
ITEM: NUMBER OF ATOMS
4
ITEM: BOX BOUNDS pp pp pp
0.0 6.5725401857546988
0.0 6.5725401857546988
0.0 6.5725401857546988
ITEM: ATOMS id type x y z fx fy fz
1 2 -1.9717620557264096e-06 -1.9717620557264096e-06 -1.9717620557264096e-06 0.0 0.0 0.0
2 2 3.2862687783693123 3.2862687783693123 -1.9717620557264096e-06 0.0 0.0 0.0
3 2 3.2862687783693123 -1.9717620557264096e-06 3.2862687783693123 0.0 0.0 0.0
4 2 -1.9717620557264096e-06 3.2862687783693123 3.2862687783693123 0.0 0.0 0.0
ITEM: TIMESTEP energy, energy_weight, force_weight, nsims
55 -264.5959469540023860 1 1 84
ITEM: NUMBER OF ATOMS
4
ITEM: BOX BOUNDS pp pp pp
0.0 6.6177319228192992
0.0 6.6177319228192992
0.0 6.6177319228192992
ITEM: ATOMS id type x y z fx fy fz
1 2 5.2941855382554391e-06 5.2941855382554391e-06 5.2941855382554391e-06 0.0 0.0 0.0
2 2 3.3088646378632651 3.3088646378632651 5.2941855382554391e-06 0.0 0.0 0.0
3 2 3.3088646378632651 5.2941855382554391e-06 3.3088646378632651 0.0 0.0 0.0
4 2 5.2941855382554391e-06 3.3088646378632651 3.3088646378632651 0.0 0.0 0.0
ITEM: TIMESTEP energy, energy_weight, force_weight, nsims
56 -264.4828559152538788 1 1 84
ITEM: NUMBER OF ATOMS
4
ITEM: BOX BOUNDS pp pp pp
0.0 6.6629236598838998
0.0 6.6629236598838998
0.0 6.6629236598838998
ITEM: ATOMS id type x y z fx fy fz
1 2 1.9988770979651698e-06 1.9988770979651698e-06 1.9988770979651698e-06 0.0 0.0 0.0
2 2 3.331460497357218 3.331460497357218 1.9988770979651698e-06 0.0 0.0 0.0
3 2 3.331460497357218 1.9988770979651698e-06 3.331460497357218 0.0 0.0 0.0
4 2 1.9988770979651698e-06 3.331460497357218 3.331460497357218 0.0 0.0 0.0
ITEM: TIMESTEP energy, energy_weight, force_weight, nsims
57 -264.3722208248174184 1 1 84
ITEM: NUMBER OF ATOMS
4
ITEM: BOX BOUNDS pp pp pp
0.0 6.7081153969485002
0.0 6.7081153969485002
0.0 6.7081153969485002
ITEM: ATOMS id type x y z fx fy fz
1 2 -6.7081153969484992e-07 -6.7081153969484992e-07 -6.7081153969484992e-07 0.0 0.0 0.0
2 2 3.3540563568511708 3.3540563568511708 -6.7081153969484992e-07 0.0 0.0 0.0
3 2 3.3540563568511708 -6.7081153969484992e-07 3.3540563568511708 0.0 0.0 0.0
4 2 -6.7081153969484992e-07 3.3540563568511708 3.3540563568511708 0.0 0.0 0.0
ITEM: TIMESTEP energy, energy_weight, force_weight, nsims
58 -264.2639839949146108 1 1 84
ITEM: NUMBER OF ATOMS
4
ITEM: BOX BOUNDS pp pp pp
0.0 6.7533071340130998
0.0 6.7533071340130998
0.0 6.7533071340130998
ITEM: ATOMS id type x y z fx fy fz
1 2 -3.3766535670065499e-06 -3.3766535670065499e-06 -3.3766535670065499e-06 0.0 0.0 0.0
2 2 3.3766522163451232 3.3766522163451232 -3.3766535670065499e-06 0.0 0.0 0.0
3 2 3.3766522163451232 -3.3766535670065499e-06 3.3766522163451232 0.0 0.0 0.0