ITEM: TIMESTEP energy, energy_weight, force_weight, nsims
0 -67.673316820790987 1 1 246
ITEM: NUMBER OF ATOMS
1
ITEM: BOX BOUNDS pp pp pp
0.0 2.4326262309896834
0.0 2.4326262309896834
0.0 2.4326262309896834
ITEM: ATOMS id type x y z fx fy fz
1 2 0.0 0.0 0.0 0.0 0.0 0.0
ITEM: TIMESTEP energy, energy_weight, force_weight, nsims
1 -67.735241929566442 1 1 246
ITEM: NUMBER OF ATOMS
1
ITEM: BOX BOUNDS pp pp pp
0.0 2.4477834500643598
0.0 2.4477834500643598
0.0 2.4477834500643598
ITEM: ATOMS id type x y z fx fy fz
1 2 0.0 0.0 0.0 0.0 0.0 0.0
ITEM: TIMESTEP energy, energy_weight, force_weight, nsims
2 -67.791874728916426 1 1 246
ITEM: NUMBER OF ATOMS
1
ITEM: BOX BOUNDS pp pp pp
0.0 2.4628481973198114
0.0 2.4628481973198114
0.0 2.4628481973198114
ITEM: ATOMS id type x y z fx fy fz
1 2 0.0 0.0 0.0 0.0 0.0 0.0
ITEM: TIMESTEP energy, energy_weight, force_weight, nsims
3 -67.8435297804994378 1 1 246
ITEM: NUMBER OF ATOMS
1
ITEM: BOX BOUNDS pp pp pp
0.0 2.4778177529966494
0.0 2.4778177529966494
0.0 2.4778177529966494
ITEM: ATOMS id type x y z fx fy fz
1 2 0.0 0.0 0.0 0.0 0.0 0.0
ITEM: TIMESTEP energy, energy_weight, force_weight, nsims
4 -67.89050246206655 1 1 246
ITEM: NUMBER OF ATOMS
1
ITEM: BOX BOUNDS pp pp pp
0.0 2.4927002763730406
0.0 2.4927002763730406
0.0 2.4927002763730406
ITEM: ATOMS id type x y z fx fy fz
1 2 0.0 0.0 0.0 0.0 0.0 0.0
ITEM: TIMESTEP energy, energy_weight, force_weight, nsims
5 -67.933070600134485 1 1 246
ITEM: NUMBER OF ATOMS
1
ITEM: BOX BOUNDS pp pp pp
0.0 2.5074930476895966
0.0 2.5074930476895966
0.0 2.5074930476895966
ITEM: ATOMS id type x y z fx fy fz
1 2 0.0 0.0 0.0 0.0 0.0 0.0
ITEM: TIMESTEP energy, energy_weight, force_weight, nsims
6 -67.9714958305463596 1 1 246
ITEM: NUMBER OF ATOMS
1
ITEM: BOX BOUNDS pp pp pp
0.0 2.5222015064650942
0.0 2.5222015064650942
0.0 2.5222015064650942
ITEM: ATOMS id type x y z fx fy fz
1 2 0.0 0.0 0.0 0.0 0.0 0.0
ITEM: TIMESTEP energy, energy_weight, force_weight, nsims
7 -68.0060240066399189 1 1 246
ITEM: NUMBER OF ATOMS
1
ITEM: BOX BOUNDS pp pp pp
0.0 2.536822932940145
0.0 2.536822932940145
0.0 2.536822932940145
ITEM: ATOMS id type x y z fx fy fz
1 2 0.0 0.0 0.0 0.0 0.0 0.0
ITEM: TIMESTEP energy, energy_weight, force_weight, nsims
8 -68.0368868319205262 1 1 246
ITEM: NUMBER OF ATOMS
1
ITEM: BOX BOUNDS pp pp pp
0.0 2.5513600468741386
0.0 2.5513600468741386
0.0 2.5513600468741386
ITEM: ATOMS id type x y z fx fy fz
1 2 0.0 0.0 0.0 0.0 0.0 0.0
ITEM: TIMESTEP energy, energy_weight, force_weight, nsims
9 -68.0643029485097912 1 1 246
ITEM: NUMBER OF ATOMS
1
ITEM: BOX BOUNDS pp pp pp
0.0 2.565815568026463
0.0 2.565815568026463
0.0 2.565815568026463
ITEM: ATOMS id type x y z fx fy fz
1 2 0.0 0.0 0.0 0.0 0.0 0.0
ITEM: TIMESTEP energy, energy_weight, force_weight, nsims
10 -68.0884782092577865 1 1 246
ITEM: NUMBER OF ATOMS
1
ITEM: BOX BOUNDS pp pp pp
0.0 2.5801894963971188
0.0 2.5801894963971188
0.0 2.5801894963971188
ITEM: ATOMS id type x y z fx fy fz
1 2 0.0 0.0 0.0 0.0 0.0 0.0
ITEM: TIMESTEP energy, energy_weight, force_weight, nsims
11 -68.1096064940794008 1 1 246
ITEM: NUMBER OF ATOMS
1
ITEM: BOX BOUNDS pp pp pp
0.0 2.5944845517454946
0.0 2.5944845517454946
0.0 2.5944845517454946
ITEM: ATOMS id type x y z fx fy fz
1 2 0.0 0.0 0.0 0.0 0.0 0.0
ITEM: TIMESTEP energy, energy_weight, force_weight, nsims
12 -68.1278712065713847 1 1 246
ITEM: NUMBER OF ATOMS
1
ITEM: BOX BOUNDS pp pp pp
0.0 2.6087007340715904
0.0 2.6087007340715904
0.0 2.6087007340715904
ITEM: ATOMS id type x y z fx fy fz
1 2 0.0 0.0 0.0 0.0 0.0 0.0
ITEM: TIMESTEP energy, energy_weight, force_weight, nsims
13 -68.1434450019000906 1 1 246
ITEM: NUMBER OF ATOMS
1
ITEM: BOX BOUNDS pp pp pp
0.0 2.622840763134796
0.0 2.622840763134796
0.0 2.622840763134796
ITEM: ATOMS id type x y z fx fy fz
1 2 0.0 0.0 0.0 0.0 0.0 0.0
ITEM: TIMESTEP energy, energy_weight, force_weight, nsims
14 -68.156491147362317 1 1 246
ITEM: NUMBER OF ATOMS
1
ITEM: BOX BOUNDS pp pp pp
0.0 2.6369046389351102
0.0 2.6369046389351102
0.0 2.6369046389351102
ITEM: ATOMS id type x y z fx fy fz
1 2 0.0 0.0 0.0 0.0 0.0 0.0
ITEM: TIMESTEP energy, energy_weight, force_weight, nsims
15 -68.1671636584413818 1 1 246
ITEM: NUMBER OF ATOMS
1
ITEM: BOX BOUNDS pp pp pp
0.0 2.6508923614725336
0.0 2.6508923614725336
0.0 2.6508923614725336
ITEM: ATOMS id type x y z fx fy fz
1 2 0.0 0.0 0.0 0.0 0.0 0.0
ITEM: TIMESTEP energy, energy_weight, force_weight, nsims
16 -68.1756074348631529 1 1 246
ITEM: NUMBER OF ATOMS
1
ITEM: BOX BOUNDS pp pp pp
0.0 2.6648093702658438
0.0 2.6648093702658438
0.0 2.6648093702658438
ITEM: ATOMS id type x y z fx fy fz
1 2 0.0 0.0 0.0 0.0 0.0 0.0
ITEM: TIMESTEP energy, energy_weight, force_weight, nsims
17 -68.1819598932691236 1 1 246
ITEM: NUMBER OF ATOMS
1
ITEM: BOX BOUNDS pp pp pp
0.0 2.6786529455556526
0.0 2.6786529455556526
0.0 2.6786529455556526
ITEM: ATOMS id type x y z fx fy fz
1 2 0.0 0.0 0.0 0.0 0.0 0.0
ITEM: TIMESTEP energy, energy_weight, force_weight, nsims
18 -68.1863501508798322 1 1 246
ITEM: NUMBER OF ATOMS
1
ITEM: BOX BOUNDS pp pp pp
0.0 2.6924230873419588
0.0 2.6924230873419588
0.0 2.6924230873419588
ITEM: ATOMS id type x y z fx fy fz
1 2 0.0 0.0 0.0 0.0 0.0 0.0
ITEM: TIMESTEP energy, energy_weight, force_weight, nsims
19 -68.1889003860557068 1 1 246
ITEM: NUMBER OF ATOMS
1
ITEM: BOX BOUNDS pp pp pp
0.0 2.7061252351435412
0.0 2.7061252351435412
0.0 2.7061252351435412
ITEM: ATOMS id type x y z fx fy fz
1 2 0.0 0.0 0.0 0.0 0.0 0.0
ITEM: TIMESTEP energy, energy_weight, force_weight, nsims
20 -68.1897254301288172 1 1 246
ITEM: NUMBER OF ATOMS
1
ITEM: BOX BOUNDS pp pp pp
0.0 2.7200313648992958
0.0 2.7200313648992958
0.0 2.7200313648992958
ITEM: ATOMS id type x y z fx fy fz
1 2 0.0 0.0 0.0 0.0 0.0 0.0
ITEM: TIMESTEP energy, energy_weight, force_weight, nsims
21 -68.1889352164123466 1 1 246
ITEM: NUMBER OF ATOMS
1
ITEM: BOX BOUNDS pp pp pp
0.0 2.7333255487925344
0.0 2.7333255487925344
0.0 2.7333255487925344
ITEM: ATOMS id type x y z fx fy fz
1 2 0.0 0.0 0.0 0.0 0.0 0.0
ITEM: TIMESTEP energy, energy_weight, force_weight, nsims
22 -68.1866319230228726 1 1 246
ITEM: NUMBER OF ATOMS
1
ITEM: BOX BOUNDS pp pp pp
0.0 2.7468209948805554
0.0 2.7468209948805554
0.0 2.7468209948805554
ITEM: ATOMS id type x y z fx fy fz
1 2 0.0 0.0 0.0 0.0 0.0 0.0
ITEM: TIMESTEP energy, energy_weight, force_weight, nsims
23 -68.1829139185066993 1 1 246
ITEM: NUMBER OF ATOMS
1
ITEM: BOX BOUNDS pp pp pp
0.0 2.760253886502631
0.0 2.760253886502631
0.0 2.760253886502631
ITEM: ATOMS id type x y z fx fy fz
1 2 0.0 0.0 0.0 0.0 0.0 0.0
ITEM: TIMESTEP energy, energy_weight, force_weight, nsims
24 -68.1778741291669235 1 1 246
ITEM: NUMBER OF ATOMS
1
ITEM: BOX BOUNDS pp pp pp
0.0 2.7736215038993716
0.0 2.7736215038993716
0.0 2.7736215038993716
ITEM: ATOMS id type x y z fx fy fz
1 2 0.0 0.0 0.0 0.0 0.0 0.0
ITEM: TIMESTEP energy, energy_weight, force_weight, nsims
25 -68.1716015356803098 1 1 246
ITEM: NUMBER OF ATOMS
1
ITEM: BOX BOUNDS pp pp pp
0.0 2.7869238470707764
0.0 2.7869238470707764
0.0 2.7869238470707764
ITEM: ATOMS id type x y z fx fy fz
1 2 0.0 0.0 0.0 0.0 0.0 0.0
ITEM: TIMESTEP energy, energy_weight, force_weight, nsims
26 -68.1641803567607667 1 1 246
ITEM: NUMBER OF ATOMS
1
ITEM: BOX BOUNDS pp pp pp
0.0 2.8001636357762362
0.0 2.8001636357762362
0.0 2.8001636357762362
ITEM: ATOMS id type x y z fx fy fz
1 2 0.0 0.0 0.0 0.0 0.0 0.0
ITEM: TIMESTEP energy, energy_weight, force_weight, nsims
27 -68.1556910015519719 1 1 246
ITEM: NUMBER OF ATOMS
1
ITEM: BOX BOUNDS pp pp pp
0.0 2.813340870015749
0.0 2.813340870015749
0.0 2.813340870015749
ITEM: ATOMS id type x y z fx fy fz
1 2 0.0 0.0 0.0 0.0 0.0 0.0
ITEM: TIMESTEP energy, energy_weight, force_weight, nsims
28 -68.1462091172347613 1 1 246
ITEM: NUMBER OF ATOMS
1
ITEM: BOX BOUNDS pp pp pp
0.0 2.8264555497893166
0.0 2.8264555497893166
0.0 2.8264555497893166
ITEM: ATOMS id type x y z fx fy fz
1 2 0.0 0.0 0.0 0.0 0.0 0.0
ITEM: TIMESTEP energy, energy_weight, force_weight, nsims
29 -68.1358053169150111 1 1 246
ITEM: NUMBER OF ATOMS
1
ITEM: BOX BOUNDS pp pp pp
0.0 2.839513114615715
0.0 2.839513114615715
0.0 2.839513114615715
ITEM: ATOMS id type x y z fx fy fz
1 2 0.0 0.0 0.0 0.0 0.0 0.0
ITEM: TIMESTEP energy, energy_weight, force_weight, nsims
30 -68.1245451796235955 1 1 246
ITEM: NUMBER OF ATOMS
1
ITEM: BOX BOUNDS pp pp pp
0.0 2.8525081249761684
0.0 2.8525081249761684
0.0 2.8525081249761684
ITEM: ATOMS id type x y z fx fy fz
1 2 0.0 0.0 0.0 0.0 0.0 0.0
ITEM: TIMESTEP energy, energy_weight, force_weight, nsims
31 -68.1124888421481529 1 1 246
ITEM: NUMBER OF ATOMS
1
ITEM: BOX BOUNDS pp pp pp
0.0 2.865443300630064
0.0 2.865443300630064
0.0 2.865443300630064
ITEM: ATOMS id type x y z fx fy fz
1 2 0.0 0.0 0.0 0.0 0.0 0.0
ITEM: TIMESTEP energy, energy_weight, force_weight, nsims
32 -68.0996916793135227 1 1 246
ITEM: NUMBER OF ATOMS
1
ITEM: BOX BOUNDS pp pp pp
0.0 2.8783240810961798
0.0 2.8783240810961798
0.0 2.8783240810961798
ITEM: ATOMS id type x y z fx fy fz
1 2 0.0 0.0 0.0 0.0 0.0 0.0
ITEM: TIMESTEP energy, energy_weight, force_weight, nsims
33 -68.0862040318695563 1 1 246
ITEM: NUMBER OF ATOMS
1
ITEM: BOX BOUNDS pp pp pp
0.0 2.8911450268557394
0.0 2.8911450268557394
0.0 2.8911450268557394
ITEM: ATOMS id type x y z fx fy fz
1 2 0.0 0.0 0.0 0.0 0.0 0.0
ITEM: TIMESTEP energy, energy_weight, force_weight, nsims
34 -68.0720725670519187 1 1 246
ITEM: NUMBER OF ATOMS
1
ITEM: BOX BOUNDS pp pp pp
0.0 2.9039088576681306
0.0 2.9039088576681306
0.0 2.9039088576681306
ITEM: ATOMS id type x y z fx fy fz
1 2 0.0 0.0 0.0 0.0 0.0 0.0
ITEM: TIMESTEP energy, energy_weight, force_weight, nsims
35 -68.0573408228063954 1 1 246
ITEM: NUMBER OF ATOMS
1
ITEM: BOX BOUNDS pp pp pp
0.0 2.9166182932927426
0.0 2.9166182932927426
0.0 2.9166182932927426
ITEM: ATOMS id type x y z fx fy fz
1 2 0.0 0.0 0.0 0.0 0.0 0.0
ITEM: TIMESTEP energy, energy_weight, force_weight, nsims
36 -68.0420494799011379 1 1 246
ITEM: NUMBER OF ATOMS
1
ITEM: BOX BOUNDS pp pp pp
0.0 2.929270613970186
0.0 2.929270613970186
0.0 2.929270613970186
ITEM: ATOMS id type x y z fx fy fz
1 2 0.0 0.0 0.0 0.0 0.0 0.0
ITEM: TIMESTEP energy, energy_weight, force_weight, nsims
37 -68.0262373143191041 1 1 246
ITEM: NUMBER OF ATOMS
1
ITEM: BOX BOUNDS pp pp pp
0.0 2.941868539459851
0.0 2.941868539459851
0.0 2.941868539459851
ITEM: ATOMS id type x y z fx fy fz
1 2 0.0 0.0 0.0 0.0 0.0 0.0
ITEM: TIMESTEP energy, energy_weight, force_weight, nsims
38 -68.0099416054264196 1 1 246
ITEM: NUMBER OF ATOMS
1
ITEM: BOX BOUNDS pp pp pp
0.0 2.9544147895211252
0.0 2.9544147895211252
0.0 2.9544147895211252
ITEM: ATOMS id type x y z fx fy fz
1 2 0.0 0.0 0.0 0.0 0.0 0.0
ITEM: TIMESTEP energy, energy_weight, force_weight, nsims
39 -67.993197727804045 1 1 246
ITEM: NUMBER OF ATOMS
1
ITEM: BOX BOUNDS pp pp pp
0.0 2.9669066443946202
0.0 2.9669066443946202
0.0 2.9669066443946202
ITEM: ATOMS id type x y z fx fy fz
1 2 0.0 0.0 0.0 0.0 0.0 0.0
ITEM: TIMESTEP energy, energy_weight, force_weight, nsims
40 -67.9760406478646928 1 1 246
ITEM: NUMBER OF ATOMS
1
ITEM: BOX BOUNDS pp pp pp
0.0 2.979346823839725
0.0 2.979346823839725
0.0 2.979346823839725
ITEM: ATOMS id type x y z fx fy fz
1 2 0.0 0.0 0.0 0.0 0.0 0.0
ITEM: TIMESTEP energy, energy_weight, force_weight, nsims
41 -67.8614236041155436 1 1 246
ITEM: NUMBER OF ATOMS
1
ITEM: BOX BOUNDS pp pp pp
0.0 2.4326262309896834
0.0 2.4326262309896834
0.0 2.7197593889603998
ITEM: ATOMS id type x y z fx fy fz
1 2 0.0 0.0 0.0 0.0 0.0 0.0
ITEM: TIMESTEP energy, energy_weight, force_weight, nsims
42 -67.9005134684814352 1 1 246
ITEM: NUMBER OF ATOMS
1
ITEM: BOX BOUNDS pp pp pp
0.0 2.4477834500643598
0.0 2.4477834500643598
0.0 2.7197593889603998
ITEM: ATOMS id type x y z fx fy fz
1 2 0.0 0.0 0.0 0.0 0.0 0.0
ITEM: TIMESTEP energy, energy_weight, force_weight, nsims
43 -67.936115535219642 1 1 246
ITEM: NUMBER OF ATOMS
1
ITEM: BOX BOUNDS pp pp pp
0.0 2.4628481973198114
0.0 2.4628481973198114
0.0 2.7197593889603998
ITEM: ATOMS id type x y z fx fy fz
1 2 0.0 0.0 0.0 0.0 0.0 0.0
ITEM: TIMESTEP energy, energy_weight, force_weight, nsims
44 -67.9685121206975112 1 1 246
ITEM: NUMBER OF ATOMS
1
ITEM: BOX BOUNDS pp pp pp
0.0 2.4778177529966494
0.0 2.4778177529966494
0.0 2.7197593889603998
ITEM: ATOMS id type x y z fx fy fz
1 2 0.0 0.0 0.0 0.0 0.0 0.0
ITEM: TIMESTEP energy, energy_weight, force_weight, nsims
45 -67.9979863576189132 1 1 246
ITEM: NUMBER OF ATOMS
1
ITEM: BOX BOUNDS pp pp pp
0.0 2.4927002763730406
0.0 2.4927002763730406
0.0 2.7197593889603998
ITEM: ATOMS id type x y z fx fy fz
1 2 0.0 0.0 0.0 0.0 0.0 0.0
ITEM: TIMESTEP energy, energy_weight, force_weight, nsims
46 -68.0247624664047521 1 1 246
ITEM: NUMBER OF ATOMS
1
ITEM: BOX BOUNDS pp pp pp
0.0 2.5074930476895966
0.0 2.5074930476895966
0.0 2.7197593889603998
ITEM: ATOMS id type x y z fx fy fz
1 2 0.0 0.0 0.0 0.0 0.0 0.0
ITEM: TIMESTEP energy, energy_weight, force_weight, nsims
47 -68.0490165036234345 1 1 246
ITEM: NUMBER OF ATOMS
1
ITEM: BOX BOUNDS pp pp pp
0.0 2.5222015064650942
0.0 2.5222015064650942
0.0 2.7197593889603998
ITEM: ATOMS id type x y z fx fy fz
1 2 0.0 0.0 0.0 0.0 0.0 0.0
ITEM: TIMESTEP energy, energy_weight, force_weight, nsims
48 -68.0708862940846444 1 1 246
ITEM: NUMBER OF ATOMS
1
ITEM: BOX BOUNDS pp pp pp
0.0 2.536822932940145
0.0 2.536822932940145
0.0 2.7197593889603998
ITEM: ATOMS id type x y z fx fy fz
1 2 0.0 0.0 0.0 0.0 0.0 0.0
ITEM: TIMESTEP energy, energy_weight, force_weight, nsims
49 -68.0904889820738362 1 1 246
ITEM: NUMBER OF ATOMS
1
ITEM: BOX BOUNDS pp pp pp
0.0 2.5513600468741386
0.0 2.5513600468741386
0.0 2.7197593889603998
ITEM: ATOMS id type x y z fx fy fz
1 2 0.0 0.0 0.0 0.0 0.0 0.0
ITEM: TIMESTEP energy, energy_weight, force_weight, nsims
50 -68.1079497391852158 1 1 246
ITEM: NUMBER OF ATOMS
1
ITEM: BOX BOUNDS pp pp pp
0.0 2.565815568026463
0.0 2.565815568026463
0.0 2.7197593889603998
ITEM: ATOMS id type x y z fx fy fz
1 2 0.0 0.0 0.0 0.0 0.0 0.0
ITEM: TIMESTEP energy, energy_weight, force_weight, nsims
51 -68.1234119685277762 1 1 246
ITEM: NUMBER OF ATOMS
1
ITEM: BOX BOUNDS pp pp pp
0.0 2.5801894963971188
0.0 2.5801894963971188
0.0 2.7197593889603998
ITEM: ATOMS id type x y z fx fy fz
1 2 0.0 0.0 0.0 0.0 0.0 0.0
ITEM: TIMESTEP energy, energy_weight, force_weight, nsims
52 -68.1370129506869375 1 1 246
ITEM: NUMBER OF ATOMS
1
ITEM: BOX BOUNDS pp pp pp
0.0 2.5944845517454946
0.0 2.5944845517454946
0.0 2.7197593889603998
ITEM: ATOMS id type x y z fx fy fz
1 2 0.0 0.0 0.0 0.0 0.0 0.0
ITEM: TIMESTEP energy, energy_weight, force_weight, nsims
53 -68.1488618026393738 1 1 246
ITEM: NUMBER OF ATOMS
1
ITEM: BOX BOUNDS pp pp pp
0.0 2.6087007340715904
0.0 2.6087007340715904
0.0 2.7197593889603998
ITEM: ATOMS id type x y z fx fy fz
1 2 0.0 0.0 0.0 0.0 0.0 0.0
ITEM: TIMESTEP energy, energy_weight, force_weight, nsims
54 -68.1590415185942789 1 1 246
ITEM: NUMBER OF ATOMS
1
ITEM: BOX BOUNDS pp pp pp
0.0 2.622840763134796
0.0 2.622840763134796
0.0 2.7197593889603998
ITEM: ATOMS id type x y z fx fy fz
1 2 0.0 0.0 0.0 0.0 0.0 0.0
ITEM: TIMESTEP energy, energy_weight, force_weight, nsims
55 -68.1676227116575291 1 1 246
ITEM: NUMBER OF ATOMS
1
ITEM: BOX BOUNDS pp pp pp
0.0 2.6369046389351102
0.0 2.6369046389351102
0.0 2.7197593889603998
ITEM: ATOMS id type x y z fx fy fz
1 2 0.0 0.0 0.0 0.0 0.0 0.0
ITEM: TIMESTEP energy, energy_weight, force_weight, nsims
56 -68.1746755867667247 1 1 246
ITEM: NUMBER OF ATOMS
1
ITEM: BOX BOUNDS pp pp pp
0.0 2.6508923614725336
0.0 2.6508923614725336
0.0 2.7197593889603998
ITEM: ATOMS id type x y z fx fy fz
1 2 0.0 0.0 0.0 0.0 0.0 0.0
ITEM: TIMESTEP energy, energy_weight, force_weight, nsims
57 -68.1802782401121874 1 1 246
ITEM: NUMBER OF ATOMS
1
ITEM: BOX BOUNDS pp pp pp
0.0 2.6648093702658438
0.0 2.6648093702658438
0.0 2.7197593889603998
ITEM: ATOMS id type x y z fx fy fz
1 2 0.0 0.0 0.0 0.0 0.0 0.0
ITEM: TIMESTEP energy, energy_weight, force_weight, nsims
58 -68.1845124413983683 1 1 246
ITEM: NUMBER OF ATOMS
1
ITEM: BOX BOUNDS pp pp pp
0.0 2.6786529455556526
0.0 2.6786529455556526
0.0 2.7197593889603998
ITEM: ATOMS id type x y z fx fy fz
1 2 0.0 0.0 0.0 0.0 0.0 0.0
ITEM: TIMESTEP energy, energy_weight, force_weight, nsims
59 -68.1874535656939713 1 1 246
ITEM: NUMBER OF ATOMS
1
ITEM: BOX BOUNDS pp pp pp
0.0 2.6924230873419588
0.0 2.6924230873419588
0.0 2.7197593889603998
ITEM: ATOMS id type x y z fx fy fz
1 2 0.0 0.0 0.0 0.0 0.0 0.0
ITEM: TIMESTEP energy, energy_weight, force_weight, nsims
60 -68.1891693689271676 1 1 246
ITEM: NUMBER OF ATOMS
1
ITEM: BOX BOUNDS pp pp pp
0.0 2.7061252351435412
0.0 2.7061252351435412
0.0 2.7197593889603998
ITEM: ATOMS id type x y z fx fy fz
1 2 0.0 0.0 0.0 0.0 0.0 0.0
ITEM: TIMESTEP energy, energy_weight, force_weight, nsims
61 -68.1897255661849044 1 1 246
ITEM: NUMBER OF ATOMS
1
ITEM: BOX BOUNDS pp pp pp
0.0 2.7200313648992958
0.0 2.7200313648992958
0.0 2.7197593889603998
ITEM: ATOMS id type x y z fx fy fz
1 2 0.0 0.0 0.0 0.0 0.0 0.0
ITEM: TIMESTEP energy, energy_weight, force_weight, nsims
62 -68.1891949474703267 1 1 246
ITEM: NUMBER OF ATOMS
1
ITEM: BOX BOUNDS pp pp pp
0.0 2.7333255487925344
0.0 2.7333255487925344
0.0 2.7197593889603998
ITEM: ATOMS id type x y z fx fy fz
1 2 0.0 0.0 0.0 0.0 0.0 0.0
ITEM: TIMESTEP energy, energy_weight, force_weight, nsims
63 -68.1876592824879282 1 1 246
ITEM: NUMBER OF ATOMS
1
ITEM: BOX BOUNDS pp pp pp
0.0 2.7468209948805554
0.0 2.7468209948805554
0.0 2.7197593889603998
ITEM: ATOMS id type x y z fx fy fz
1 2 0.0 0.0 0.0 0.0 0.0 0.0
ITEM: TIMESTEP energy, energy_weight, force_weight, nsims
64 -68.1852100009239024 1 1 246
ITEM: NUMBER OF ATOMS
1
ITEM: BOX BOUNDS pp pp pp
0.0 2.760253886502631
0.0 2.760253886502631
0.0 2.7197593889603998
ITEM: ATOMS id type x y z fx fy fz
1 2 0.0 0.0 0.0 0.0 0.0 0.0
ITEM: TIMESTEP energy, energy_weight, force_weight, nsims
65 -68.1819446549881008 1 1 246
ITEM: NUMBER OF ATOMS
1
ITEM: BOX BOUNDS pp pp pp
0.0 2.7736215038993716
0.0 2.7736215038993716
0.0 2.7197593889603998
ITEM: ATOMS id type x y z fx fy fz
1 2 0.0 0.0 0.0 0.0 0.0 0.0
ITEM: TIMESTEP energy, energy_weight, force_weight, nsims
66 -68.177961749282872 1 1 246
ITEM: NUMBER OF ATOMS
1
ITEM: BOX BOUNDS pp pp pp
0.0 2.7869238470707764
0.0 2.7869238470707764
0.0 2.7197593889603998
ITEM: ATOMS id type x y z fx fy fz
1 2 0.0 0.0 0.0 0.0 0.0 0.0
ITEM: TIMESTEP energy, energy_weight, force_weight, nsims
67 -68.1733484957559739 1 1 246
ITEM: NUMBER OF ATOMS
1
ITEM: BOX BOUNDS pp pp pp
0.0 2.8001636357762362
0.0 2.8001636357762362
0.0 2.7197593889603998
ITEM: ATOMS id type x y z fx fy fz
1 2 0.0 0.0 0.0 0.0 0.0 0.0
ITEM: TIMESTEP energy, energy_weight, force_weight, nsims
68 -68.1681691128774503 1 1 246
ITEM: NUMBER OF ATOMS
1
ITEM: BOX BOUNDS pp pp pp
0.0 2.813340870015749
0.0 2.813340870015749
0.0 2.7197593889603998
ITEM: ATOMS id type x y z fx fy fz
1 2 0.0 0.0 0.0 0.0 0.0 0.0
ITEM: TIMESTEP energy, energy_weight, force_weight, nsims
69 -68.1624627847985352 1 1 246
ITEM: NUMBER OF ATOMS
1
ITEM: BOX BOUNDS pp pp pp
0.0 2.8264555497893166
0.0 2.8264555497893166
0.0 2.7197593889603998
ITEM: ATOMS id type x y z fx fy fz
1 2 0.0 0.0 0.0 0.0 0.0 0.0
ITEM: TIMESTEP energy, energy_weight, force_weight, nsims
70 -68.1562525049968429 1 1 246
ITEM: NUMBER OF ATOMS
1
ITEM: BOX BOUNDS pp pp pp
0.0 2.839513114615715
0.0 2.839513114615715
0.0 2.7197593889603998
ITEM: ATOMS id type x y z fx fy fz
1 2 0.0 0.0 0.0 0.0 0.0 0.0
ITEM: TIMESTEP energy, energy_weight, force_weight, nsims
71 -68.1495544641460072 1 1 246
ITEM: NUMBER OF ATOMS
1
ITEM: BOX BOUNDS pp pp pp
0.0 2.8525081249761684
0.0 2.8525081249761684
0.0 2.7197593889603998
ITEM: ATOMS id type x y z fx fy fz
1 2 0.0 0.0 0.0 0.0 0.0 0.0
ITEM: TIMESTEP energy, energy_weight, force_weight, nsims
72 -68.1423875740412086 1 1 246
ITEM: NUMBER OF ATOMS
1
ITEM: BOX BOUNDS pp pp pp
0.0 2.865443300630064
0.0 2.865443300630064
0.0 2.7197593889603998
ITEM: ATOMS id type x y z fx fy fz
1 2 0.0 0.0 0.0 0.0 0.0 0.0
ITEM: TIMESTEP energy, energy_weight, force_weight, nsims
73 -68.1347793180107573 1 1 246
ITEM: NUMBER OF ATOMS
1
ITEM: BOX BOUNDS pp pp pp
0.0 2.8783240810961798
0.0 2.8783240810961798
0.0 2.7197593889603998
ITEM: ATOMS id type x y z fx fy fz
1 2 0.0 0.0 0.0 0.0 0.0 0.0
ITEM: TIMESTEP energy, energy_weight, force_weight, nsims
74 -68.1267656148599485 1 1 246
ITEM: NUMBER OF ATOMS
1
ITEM: BOX BOUNDS pp pp pp
0.0 2.8911450268557394
0.0 2.8911450268557394
0.0 2.7197593889603998
ITEM: ATOMS id type x y z fx fy fz
1 2 0.0 0.0 0.0 0.0 0.0 0.0
ITEM: TIMESTEP energy, energy_weight, force_weight, nsims
75 -68.1183867371886436 1 1 246
ITEM: NUMBER OF ATOMS
1
ITEM: BOX BOUNDS pp pp pp
0.0 2.9039088576681306
0.0 2.9039088576681306
0.0 2.7197593889603998
ITEM: ATOMS id type x y z fx fy fz
1 2 0.0 0.0 0.0 0.0 0.0 0.0
ITEM: TIMESTEP energy, energy_weight, force_weight, nsims
76 -68.109682413372397 1 1 246
ITEM: NUMBER OF ATOMS
1
ITEM: BOX BOUNDS pp pp pp
0.0 2.9166182932927426
0.0 2.9166182932927426
0.0 2.7197593889603998
ITEM: ATOMS id type x y z fx fy fz
1 2 0.0 0.0 0.0 0.0 0.0 0.0
ITEM: TIMESTEP energy, energy_weight, force_weight, nsims
77 -68.1006891064408393 1 1 246
ITEM: NUMBER OF ATOMS
1
ITEM: BOX BOUNDS pp pp pp
0.0 2.929270613970186
0.0 2.929270613970186
0.0 2.7197593889603998
ITEM: ATOMS id type x y z fx fy fz
1 2 0.0 0.0 0.0 0.0 0.0 0.0
ITEM: TIMESTEP energy, energy_weight, force_weight, nsims
78 -68.0914405583019686 1 1 246
ITEM: NUMBER OF ATOMS
1
ITEM: BOX BOUNDS pp pp pp
0.0 2.941868539459851
0.0 2.941868539459851
0.0 2.7197593889603998
ITEM: ATOMS id type x y z fx fy fz
1 2 0.0 0.0 0.0 0.0 0.0 0.0
ITEM: TIMESTEP energy, energy_weight, force_weight, nsims
79 -68.0819692863590404 1 1 246
ITEM: NUMBER OF ATOMS
1
ITEM: BOX BOUNDS pp pp pp
0.0 2.9544147895211252
0.0 2.9544147895211252
0.0 2.7197593889603998
ITEM: ATOMS id type x y z fx fy fz
1 2 0.0 0.0 0.0 0.0 0.0 0.0
ITEM: TIMESTEP energy, energy_weight, force_weight, nsims
80 -68.0723068556228128 1 1 246
ITEM: NUMBER OF ATOMS
1
ITEM: BOX BOUNDS pp pp pp
0.0 2.9669066443946202
0.0 2.9669066443946202
0.0 2.7197593889603998
ITEM: ATOMS id type x y z fx fy fz
1 2 0.0 0.0 0.0 0.0 0.0 0.0
ITEM: TIMESTEP energy, energy_weight, force_weight, nsims
81 -68.0624825181505884 1 1 246
ITEM: NUMBER OF ATOMS
1
ITEM: BOX BOUNDS pp pp pp
0.0 2.979346823839725
0.0 2.979346823839725
0.0 2.7197593889603998
ITEM: ATOMS id type x y z fx fy fz
1 2 0.0 0.0 0.0 0.0 0.0 0.0
ITEM: TIMESTEP energy, energy_weight, force_weight, nsims
82 -68.2972370811216365 1 1 246
ITEM: NUMBER OF ATOMS
1
ITEM: BOX BOUNDS xy xz yz pp pp pp
-1.0878992782369481 2.7197600950343236 -0.543949639118474
-0.6661989235678466 2.6648102680386074 -0.543949639118474
0.0 2.5801923879588974 -0.6661989235678466
ITEM: ATOMS id type x y z fx fy fz
1 2 0.0 0.0 0.0 0.0 0.0 0.0
ITEM: TIMESTEP energy, energy_weight, force_weight, nsims
83 -68.2873958726954129 1 1 246
ITEM: NUMBER OF ATOMS
1
ITEM: BOX BOUNDS xy xz yz pp pp pp
-1.033510352147706 2.719758408614792 -0.516755176073853
-0.626348418720568 2.6702153263794562 -0.516755176073853
0.0 2.5957152285252692 -0.626348418720568
ITEM: ATOMS id type x y z fx fy fz
1 2 0.0 0.0 0.0 0.0 0.0 0.0
ITEM: TIMESTEP energy, energy_weight, force_weight, nsims
84 -68.2785670575653683 1 1 246
ITEM: NUMBER OF ATOMS
1
ITEM: BOX BOUNDS xy xz yz pp pp pp
-0.9791132213601984 2.7197592922131166 -0.4895566106800992
-0.5872688785277826 2.6753364148306674 -0.4895566106800992
0.0 2.610084327532681 -0.5872688785277826
ITEM: ATOMS id type x y z fx fy fz
1 2 0.0 0.0 0.0 0.0 0.0 0.0
ITEM: TIMESTEP energy, energy_weight, force_weight, nsims
85 -68.2698332095796303 1 1 246
ITEM: NUMBER OF ATOMS
1
ITEM: BOX BOUNDS xy xz yz pp pp pp
-0.9247196922151924 2.7197607172579238 -0.4623598461075962
-0.5489516330563592 2.6801719593799752 -0.4623598461075962
0.0 2.623351641776499 -0.5489516330563592
ITEM: ATOMS id type x y z fx fy fz
1 2 0.0 0.0 0.0 0.0 0.0 0.0
ITEM: TIMESTEP energy, energy_weight, force_weight, nsims
86 -68.2618559694584235 1 1 246
ITEM: NUMBER OF ATOMS
1
ITEM: BOX BOUNDS xy xz yz pp pp pp
-0.870320305523992 2.7197601183372156 -0.435160152761996
-0.511373515602393 2.6847217253834376 -0.435160152761996
0.0 2.6355697430131252 -0.511373515602393
ITEM: ATOMS id type x y z fx fy fz
1 2 0.0 0.0 0.0 0.0 0.0 0.0
ITEM: TIMESTEP energy, energy_weight, force_weight, nsims
87 -68.2549632323561611 1 1 246
ITEM: NUMBER OF ATOMS
1
ITEM: BOX BOUNDS xy xz yz pp pp pp
-0.815932720114472 2.7197595252217016 -0.407966360057236
-0.474530583724149 2.6889877880153762 -0.407966360057236
0.0 2.6467859847759216 -0.474530583724149
ITEM: ATOMS id type x y z fx fy fz
1 2 0.0 0.0 0.0 0.0 0.0 0.0
ITEM: TIMESTEP energy, energy_weight, force_weight, nsims
88 -68.2484402956811352 1 1 246
ITEM: NUMBER OF ATOMS
1
ITEM: BOX BOUNDS xy xz yz pp pp pp
-0.7615336634113028 2.719759621641245 -0.3807668317056514
-0.4383917668004068 2.6929740101573514 -0.3807668317056514
0.0 2.6570513126743688 -0.4383917668004068
ITEM: ATOMS id type x y z fx fy fz
1 2 0.0 0.0 0.0 0.0 0.0 0.0
ITEM: TIMESTEP energy, energy_weight, force_weight, nsims
89 -68.2423304252669709 1 1 246
ITEM: NUMBER OF ATOMS
1
ITEM: BOX BOUNDS xy xz yz pp pp pp
-0.7071372730087594 2.7197605651377716 -0.3535686365043797
-0.4029519767949444 2.696680691323866 -0.3535686365043797
0.0 2.6664051558898568 -0.4029519767949444
ITEM: ATOMS id type x y z fx fy fz
1 2 0.0 0.0 0.0 0.0 0.0 0.0
ITEM: TIMESTEP energy, energy_weight, force_weight, nsims
90 -68.2358658566505483 1 1 246
ITEM: NUMBER OF ATOMS
1
ITEM: BOX BOUNDS xy xz yz pp pp pp
-0.6527465024798584 2.7197596781809574 -0.3263732512399292
-0.3681989720267964 2.7001061475308826 -0.3263732512399292
0.0 2.6748836843744206 -0.3681989720267964
ITEM: ATOMS id type x y z fx fy fz
1 2 0.0 0.0 0.0 0.0 0.0 0.0
ITEM: TIMESTEP energy, energy_weight, force_weight, nsims
91 -68.2294920374399112 1 1 246
ITEM: NUMBER OF ATOMS
1
ITEM: BOX BOUNDS xy xz yz pp pp pp
-0.5983427033458818 2.7197594033656056 -0.2991713516729409
-0.3341074324126203 2.7032550221046146 -0.2991713516729409
0.0 2.6825286462851548 -0.3341074324126203
ITEM: ATOMS id type x y z fx fy fz
1 2 0.0 0.0 0.0 0.0 0.0 0.0
ITEM: TIMESTEP energy, energy_weight, force_weight, nsims
92 -68.2232931863490109 1 1 246
ITEM: NUMBER OF ATOMS
1
ITEM: BOX BOUNDS xy xz yz pp pp pp
-0.5439564536671068 2.7197587119387704 -0.2719782268335534
-0.3006835062431003 2.7061255135886278 -0.2719782268335534
0.0 2.689368833828612 -0.3006835062431003
ITEM: ATOMS id type x y z fx fy fz
1 2 0.0 0.0 0.0 0.0 0.0 0.0
ITEM: TIMESTEP energy, energy_weight, force_weight, nsims
93 -68.2174808705832589 1 1 246
ITEM: NUMBER OF ATOMS
1
ITEM: BOX BOUNDS xy xz yz pp pp pp
-0.4895562244085328 2.7197604489605772 -0.2447781122042664
-0.2678952917946323 2.7087230525684896 -0.2447781122042664
0.0 2.695442948413159 -0.2678952917946323
ITEM: ATOMS id type x y z fx fy fz
1 2 0.0 0.0 0.0 0.0 0.0 0.0
ITEM: TIMESTEP energy, energy_weight, force_weight, nsims
94 -68.2120322327211 1 1 246
ITEM: NUMBER OF ATOMS
1
ITEM: BOX BOUNDS xy xz yz pp pp pp
-0.4351603026996814 2.7197583604491956 -0.2175801513498407
-0.2357421040696627 2.7110412053253406 -0.2175801513498407
0.0 2.7007721261410938 -0.2357421040696627
ITEM: ATOMS id type x y z fx fy fz
1 2 0.0 0.0 0.0 0.0 0.0 0.0
ITEM: TIMESTEP energy, energy_weight, force_weight, nsims
95 -68.2069724431374738 1 1 246
ITEM: NUMBER OF ATOMS
1
ITEM: BOX BOUNDS xy xz yz pp pp pp
-0.380765639810862 2.7197594342770302 -0.190382819905431
-0.2042105218418094 2.7130878648181978 -0.190382819905431
0.0 2.7053916213725628 -0.2042105218418094
ITEM: ATOMS id type x y z fx fy fz
1 2 0.0 0.0 0.0 0.0 0.0 0.0
ITEM: TIMESTEP energy, energy_weight, force_weight, nsims
96 -68.2026270840333808 1 1 246
ITEM: NUMBER OF ATOMS
1
ITEM: BOX BOUNDS xy xz yz pp pp pp
-0.3263681057906478 2.719760083856115 -0.1631840528953239
-0.1732871951805305 2.71486019504093 -0.1631840528953239
0.0 2.7093241641789826 -0.1732871951805305
ITEM: ATOMS id type x y z fx fy fz
1 2 0.0 0.0 0.0 0.0 0.0 0.0
ITEM: TIMESTEP energy, energy_weight, force_weight, nsims
97 -68.1988927527875433 1 1 246
ITEM: NUMBER OF ATOMS
1
ITEM: BOX BOUNDS xy xz yz pp pp pp
-0.2719731932474592 2.7197598503702608 -0.1359865966237296
-0.1429646706568469 2.7163580929665288 -0.1359865966237296
0.0 2.7125932964911522 -0.1429646706568469
ITEM: ATOMS id type x y z fx fy fz
1 2 0.0 0.0 0.0 0.0 0.0 0.0
ITEM: TIMESTEP energy, energy_weight, force_weight, nsims
98 -68.1955655013350253 1 1 246
ITEM: NUMBER OF ATOMS
1
ITEM: BOX BOUNDS xy xz yz pp pp pp
-0.217585725213757 2.7197584343505242 -0.1087928626068785
-0.1132353068414731 2.7175816554919954 -0.1087928626068785
0.0 2.7152215046937026 -0.1132353068414731
ITEM: ATOMS id type x y z fx fy fz
1 2 0.0 0.0 0.0 0.0 0.0 0.0
ITEM: TIMESTEP energy, energy_weight, force_weight, nsims
99 -68.1928514546380456 1 1 246
ITEM: NUMBER OF ATOMS
1
ITEM: BOX BOUNDS xy xz yz pp pp pp
-0.1631884714560824 2.7197582470542216 -0.0815942357280412
-0.0840799533270655 2.71853403567353 -0.0815942357280412
0.0 2.7172334946713592 -0.0840799533270655
ITEM: ATOMS id type x y z fx fy fz
1 2 0.0 0.0 0.0 0.0 0.0 0.0
ITEM: TIMESTEP energy, energy_weight, force_weight, nsims
100 -68.1909827243701869 1 1 246
ITEM: NUMBER OF ATOMS
1
ITEM: BOX BOUNDS xy xz yz pp pp pp
-0.108795411659993 2.7197595189771344 -0.0543977058299965
-0.0554968117572284 2.7192154623470294 -0.0543977058299965
0.0 2.7186490826423238 -0.0554968117572284
ITEM: ATOMS id type x y z fx fy fz
1 2 0.0 0.0 0.0 0.0 0.0 0.0
ITEM: TIMESTEP energy, energy_weight, force_weight, nsims
101 -68.1900018960847234 1 1 246
ITEM: NUMBER OF ATOMS
1
ITEM: BOX BOUNDS xy xz yz pp pp pp
-0.0543985487278806 2.7197597438386612 -0.0271992743639403
-0.0274726577144997 2.719623735680988 -0.0271992743639403
0.0 2.7194849727030142 -0.0274726577144997
ITEM: ATOMS id type x y z fx fy fz
1 2 0.0 0.0 0.0 0.0 0.0 0.0
ITEM: TIMESTEP energy, energy_weight, force_weight, nsims
102 -68.1897258382970648 1 1 246
ITEM: NUMBER OF ATOMS
1
ITEM: BOX BOUNDS xy xz yz pp pp pp
0.0 2.7208473742978856 5.4397906994617902e-04
0.0 2.7203032320369402 5.4397906994617902e-04
0.0 2.7197593073784968 5.4387027957306815e-04
ITEM: ATOMS id type x y z fx fy fz