ITEM: TIMESTEP energy, energy_weight, force_weight, nsims
0 -3682.4001081772557888 1 1 500
ITEM: NUMBER OF ATOMS
54
ITEM: BOX BOUNDS xy xz yz pp pp pp
-1.606577949580442 9.216680145833001 -0.803288974790221
-0.8766353153907602 9.1816106778781066 -0.803288974790221
0.0 9.1396655665344202 -0.8766353153907602
ITEM: ATOMS id type x y z fx fy fz
1 2 -0.0018250880789861 0.0415745495183718 -0.0529387708944807 0.8164857980779476 0.6711826662389436 0.695372129803973
2 2 1.2813567219514153 1.45538577395055 1.5390986601735934 -0.8598063345894142 -0.7268187923931146 -0.8184555210894874
3 2 -0.2460097531033481 -0.273867521220852 2.950040929773241 0.0494073688538755 0.2147653714177351 0.6962596750116268
4 2 0.9385410412972768 1.0708892081262667 4.563162655336753 0.2187642099503651 0.3861137899123955 0.6555210414478018
5 2 -0.6001166878805792 -0.5930074890739888 6.0373696899879521 0.6912089977059632 -0.0759992722857406 0.486805433766112
6 2 0.7571371232191018 0.8462202414318032 7.5239938742778448 -0.1105253465064202 -0.0078377543772067 -0.0737994354384968
7 2 -0.331797550496816 2.9675231008035378 -6.8821681716004184e-04 0.5422207020600934 0.8671370671967792 0.1419434698377259
8 2 0.9486110442462668 4.3830614202220702 1.6092209162997154 -0.0039952389865967 0.1709061885534193 -0.719861898352357
9 2 -0.552663885062471 2.7763206455194488 3.0275580893092462 0.0187047838519153 -0.2459376971770485 0.4410683163141071
10 2 0.6705876846836992 4.2140849033106589 4.5850091979404404 -0.1611848431590425 -0.5427637192902686 -0.6889019458090116
11 2 -0.83994085191601 2.5577599316735872 6.078862857693462 0.2678561043054598 -0.1174745272342493 0.0192591139410524
12 2 0.5044975451312456 3.9107718121826852 7.6639276379008274 -0.7344125489713458 -0.7960624881055346 -0.622846676550854
13 2 -0.4773440818677584 6.219145790499022 -0.0523446926326559 0.0473597413817566 -0.4982576465816722 0.4865449808995554
14 2 0.7703957410231686 7.5958841529082868 1.5837678616634736 -0.1821491134781829 -1.105988286675869 -0.928799347631654
15 2 -0.8838669100635882 5.8811931913117946 3.0336770954060412 0.838419631832216 0.6059401230530322 0.8415748910408856
16 2 0.5642712897958526 7.2095675672721757 4.5276157540488304 -0.3660113537578134 0.0634628247828467 -0.0608115020188473
17 2 -0.976742158988865 5.645685121969473 6.0048489319691098 -1.0167897361962348 -0.6851409344250142 -0.3831724465822799
18 2 0.2593242665185475 6.9116062240845926 7.5994143945328868 0.3112769138849986 0.2718233182550826 0.4249891441830957
19 2 3.0801478149228236 0.0654909059568372 0.0434563678692012 -0.7499502465347676 -0.6820414681798618 -0.8028543172496198
20 2 4.4166763102398372 1.3509212381219031 1.4531062887577408 0.3803529735964366 0.0743121136378194 1.1377486239907746
21 2 2.7037360578637824 -0.2317276137109315 3.1040260152382131 0.6238918304526828 0.1600345310909536 -0.1664062417908596
22 2 3.9942623112079306 1.102737740579526 4.5428945329764066 0.7177070558305302 -0.0309180435430998 0.7487333428650618
23 2 2.576783400924601 -0.656756810051841 6.1807436237301774 -0.3039538945905622 0.3915421624411307 -0.4252948484855002
24 2 3.8853420146323288 0.7049190445511456 7.6557787120817054 -0.5562715300013072 0.6875613720220166 -0.705508708544341
25 2 2.8790289710369046 2.9856517356696438 0.0133978357539828 -0.7109903029322836 -0.312906994017248 -0.5083422890149872
26 2 3.999551350770913 4.3523191914961821 1.5615913771328348 0.9304163151319246 1.12301851029098 0.7119742645515452
27 2 2.608811933583489 2.69763161056951 2.9637266649925698 0.3521849832228224 0.7763698859778936 1.3432842451581173
28 2 3.7939507653351514 4.1653464159112383 4.6619989987732566 -0.0184720989119017 -0.546866430437004 -1.4843039172174248
29 2 2.262758472729991 2.5843034270366494 6.0176133888993313 -0.664595239887467 -0.9938467440004712 -0.4247618585621322
30 2 3.4679663139127418 3.7684990233781274 7.6292371232764884 0.9315918240222468 0.549076551701486 0.6245168659103322
31 2 2.623722016855183 6.056162716923553 -0.0307074483704423 -0.0241691518409841 0.5450234628679246 0.8636431935505432
32 2 3.762392412028555 7.5045196436509266 1.5430378560327696 -0.2350904652055234 -0.0734088846938774 -0.3394220214302579
33 2 2.2881419386329478 5.759597929400579 3.0929935249328491 -0.1019103472964391 -0.1522515412355401 -0.6617654824843856
34 2 3.4451628959744745 7.1682450528761272 4.6035718587060712 0.9379468225441412 1.1285319863723609 0.3876363978845061
35 2 2.0941823442208598 5.4766949476247398 6.0057857476896794 -0.4705712240452352 0.2511380127535274 0.8198914828463664
36 2 3.2816206648829418 6.8618958205580958 7.5929745861747078 0.2699957773118604 0.3290406735596217 0.8192731322599216
37 2 6.189689743942731 0.0952843692598457 -0.0581191333375924 -0.1681227110279096 -1.3624932225651339 -0.0452339523386276
38 2 7.4244514220443092 1.3738480440633154 1.5125296523716778 -0.2037875273472852 -0.0525605711790973 0.5248135545532038
39 2 5.8347227197375338 -0.3511730806057388 3.036396145912085 0.2827461406933082 0.5415455300684078 0.4655480575556838
40 2 7.1535284001563682 1.0309058996579299 4.6027182139421586 -0.1905666518771912 0.2206570569430496 -0.4196314770228728
41 2 5.6530345177649126 -0.544793665870257 6.1787255855730869 -1.124038724481006 -1.4775889640921952 -1.6145506622197532
42 2 6.8314697576527844 0.80299226350676 7.5741834337699112 0.6888109287164538 1.1219599866467416 0.3628972322180966
43 2 5.810263808354855 2.9997268953801664 0.0581045098726859 0.9550667776996548 1.2114593563305924 0.1928515922770809
44 2 7.181934422782672 4.4964406114214066 1.5876339401981178 -0.6898632817103492 -0.9886492566387326 -1.123511905207981
45 2 5.5886424429166244 2.7741733123861422 3.0865802216048115 -0.7938374544360572 -1.0427941422933695 -0.9912923518689414
46 2 6.8188181104322236 4.0734239877084741 4.4776382347979072 1.2248257563046063 1.6233322689889924 1.5510623835042422
47 2 5.2886904395406003 2.5438924344166246 6.046417044932265 0.1057592904478229 -0.5728075873681242 0.2280965472627083
48 2 6.6514632567213906 3.902379659602179 7.5312242637075304 0.061912705994624 0.1002769247285873 0.6315251820372808
49 2 5.616111682501022 6.0156018273347165 0.0793222434853956 -0.2119674957080918 0.1094123154508196 -0.3800585821529941
50 2 6.9140473837219494 7.5088277368214156 1.5263232356446914 -0.683177896284679 -0.1461405405126217 -0.7023976723297954
51 2 5.3318873652628467 5.889910010090155 3.1358667821389053 -1.1426609758845852 -1.2060494957528858 -1.477561967496945
52 2 6.545780827523883 7.1979807457127718 4.5484514496408598 0.5906358817609168 0.7567680438323792 0.8354597765510718
53 2 5.038103763173468 5.5266326067119326 6.1472805661914256 0.6369293861855064 0.451568449203844 0.3076765965203475
54 2 6.4307047006603515 6.9442967229569534 7.6633372155052292 -1.0136064519505912 -0.9603557963748128 -0.8764236388524126
ITEM: TIMESTEP energy, energy_weight, force_weight, nsims
1 -3683.9623465448791254 1 1 500
ITEM: NUMBER OF ATOMS
54
ITEM: BOX BOUNDS xy xz yz pp pp pp
-1.5516684523162214 9.2341429950499983 -0.7758342261581108
-0.8440006697475698 9.2014910654195017 -0.7758342261581108
0.0 9.1627076648402923 -0.8440006697475698
ITEM: ATOMS id type x y z fx fy fz
1 2 0.0233790582186486 0.0573015684198691 0.032243568272573 -0.2263669653936796 -0.5426534189153892 -0.7687038813685642
2 2 1.2230375627178358 1.4007149966889556 1.5112200354943732 0.8363421795501064 0.0238459640292747 0.3299660140006257
3 2 -0.2943613803950593 -0.259347973954612 3.065049410442553 0.1732435794812237 -0.4080723062680357 -0.4231618603503045
4 2 1.1270631539429286 1.0878533612039505 4.5211539267913788 -0.3283364480892383 0.2612131421008972 0.4499543099183138
5 2 -0.4511128304423944 -0.5529732230545114 6.1265812574125747 -0.556794749728299 -0.7241610418683414 -0.612453244489963
6 2 0.747037801619222 0.8371879706208138 7.5421994336735364 0.7827822201258904 0.9267650899019444 1.1976512406361992
7 2 -0.1659609779826245 3.0246343914844065 0.0665560759358669 -1.2085246978716817 -0.8446177929912282 -1.0709279369796667
8 2 1.0520966719496356 4.3903087415485063 1.4470297706775681 0.2851568080939344 1.2208400304039551 0.8689291269005298
9 2 -0.492834148269832 2.7028885905771616 3.0930937097923295 0.5051093824561696 0.6749742737642246 0.2819244157559787
10 2 0.7240119996832854 4.2612024017524863 4.6476047901907744 -0.1874365894907552 -0.9009802561128444 -0.8365450396801294
11 2 -0.757359187006538 2.604969569427969 6.1036827346873706 -0.6140067057137882 -0.874503538154047 -0.850165721870357
12 2 0.462045491560865 3.8228795185264528 7.6939182960002608 0.3221028056907546 0.4815909771159306 0.373367283187412
13 2 -0.5758982738694912 6.1914495386690662 -0.0499660774379071 0.1309118896872066 0.107537209077871 0.3060943389282556
14 2 0.8559895802498524 7.4815815530722852 1.4588606588144096 -0.5427405793514828 0.0249507675510847 0.175148510664163
15 2 -0.71665200480587 5.7549588303361992 3.0660417316826552 -0.4028218541575207 0.3086183920289326 -0.8196755100843648
16 2 0.5617713040706976 7.2801769610025051 4.5183886216181302 -0.2282333300119759 0.0513025298404386 0.2224516877511097
17 2 -1.0378587463562994 5.5362761722374528 6.1468317576226381 -0.8005714337331778 -0.1981946041427393 -0.1463837669803043
18 2 0.3383517028673473 6.877450172847559 7.5521840362159134 -0.2688801751519503 0.78500519691192 0.5073822386658046
19 2 3.1574297641858489 -0.0751029431501056 -0.0573750428556969 -0.3052535878190355 0.6106624703383674 0.3453430175447012
20 2 4.4150271718923193 1.4857765514971628 1.4718295552432246 -0.3794114351982824 -0.8467674933044358 -0.0912904009458775
21 2 2.79745058924654 -0.210079652495767 2.967544456827155 0.0575114896375507 0.0633617803834817 -0.0364055514709545
22 2 4.0290944764956427 1.0887972781967317 4.5903122117040606 0.1953327079357885 0.3435882388534391 -0.150547156188745
23 2 2.5623191228882982 -0.4669189560252 6.1054328118513555 -0.581295059804352 -1.0131577942485761 -0.4590259372536694
24 2 3.7916890420298818 0.7815872778934132 7.6348884681402946 0.5902846689122334 0.503732813208841 0.4369836028975383
25 2 2.848524636990737 3.1115717049223535 0.031465654391828 -0.2822830848071598 -0.7769105892141902 -0.759546122038839
26 2 4.0755886044310437 4.4821425361302608 1.568838806373955 0.0915125443582219 0.1369087333787815 0.3043914965440462
27 2 2.4963549715839762 2.8002636418000418 3.0117371121654464 0.553299847640339 0.4458497989985616 0.570700053165593
28 2 3.9447659586692958 4.0822965195763308 4.6444821394185958 -0.859028318425347 0.1843525498714601 -0.9662258846239272
29 2 2.2963859825549791 2.5761513116167434 6.1230233780263159 -0.9795943414813888 -0.991598056171346 -0.9167622085856728
30 2 3.538317027002793 3.8679625568443138 7.5401479034273784 0.9854528597611104 0.9959722759331692 1.3642953095756911
31 2 2.555803400245695 6.129835780382491 -0.047732209309219 0.6754967221599236 -0.0017547786912622 0.2365966181100529
32 2 3.7316970408553552 7.5928680989112324 1.6145350620400466 0.6420530828535608 -0.2809260559525837 -0.1757154391644169
33 2 2.2352799819138247 5.8333035633043774 3.0577952947842988 0.4557014993814322 -0.2053579578595532 0.3091878916334961
34 2 3.555288614189693 7.2739460004885235 4.623683709290174 -0.2082201111769349 -0.1770680971416668 -0.2412886263645353
35 2 2.0170713411430623 5.543815755317092 6.1311397044758316 0.419366910389421 -0.1649075450888278 -0.3074511106724007
36 2 3.3080417413030397 6.929993923560743 7.5599805841679252 0.477875474278212 0.4574727331402754 0.2555973360679964
37 2 6.2006094585258218 -0.0621226618134204 -0.0699288686272946 -0.5774044647631538 0.8477653388869688 0.4082859650361586
38 2 7.3812844713476747 1.4850616778843508 1.5460099202270052 -0.4522240808027772 -0.5750053673319204 -0.6497540544815
39 2 5.966535506793348 -0.2511104479008235 3.1490164634831497 -1.1810365074775104 -0.8798061836820456 -1.1919169066946285
40 2 7.226386693252544 1.0499169254322276 4.5455038224106916 0.8461969652581486 1.421095374650792 1.2526106521360989
41 2 5.711082188380721 -0.4703960195512308 6.0402300678375864 -0.4637765666864096 -0.4924713763330488 0.0103772341037409
42 2 6.9087173370050098 0.8991114263432374 7.5938826025278336 0.4142203308930115 0.2169523527434311 0.5252197890341114
43 2 5.8180037180832542 3.0766950847193351 -0.042253826396411 -0.2466488646290677 -0.15456347823068 -0.3963544983772998
44 2 7.1047359890345332 4.3843359605143588 1.4496979511495696 1.0065024907433278 0.5750961273140472 0.947481762876076
45 2 5.6271328772444172 2.8055183421222544 3.0891079319581243 -0.375627798096361 -0.603102395226591 -0.1834886588234541
46 2 6.9539213702265066 4.1392788767114706 4.487196015914714 0.1974908928932178 0.7432319509739354 0.8543761622876622
47 2 5.3452356924332705 2.4826576715061246 6.0962123791282261 0.5636074048172914 -0.1258681543631788 0.1501748602847234
48 2 6.6314892077204544 3.813844744239352 7.733354589789733 0.0312193769681781 -0.0994266605334219 -0.4500589538637122
49 2 5.6321138720277722 6.0745233664076146 0.0647528550674264 -0.6912581057982756 -0.0333659919562144 -0.6121853354209088
50 2 6.8490519792115086 7.625012295069448 1.4347590725728137 0.611573412595238 -0.1012017509487295 0.6931100722324384
51 2 5.3909810583338516 5.9284907631545236 3.0342544662517912 -0.1593824990380538 -0.1757594050481101 -0.0830613244927586
52 2 6.7086367940786404 7.2186888373682736 4.5933798862302488 0.2516254941306165 -0.0959965502740624 0.3061948691067587
53 2 5.0743385287276936 5.5528731498342038 6.1402959982453069 0.855398947581998 0.370893623731202 0.1958140186625347
54 2 6.3595525061361249 7.05025108366452 7.674278032120677 0.1497868806444136 -0.495381095080157 -0.680514232219994
ITEM: TIMESTEP energy, energy_weight, force_weight, nsims
2 -3691.51304405040702 1 1 500
ITEM: NUMBER OF ATOMS
54
ITEM: BOX BOUNDS xy xz yz pp pp pp
-0.9905930972604704 9.4087714872199993 -0.4952965486302352
-0.5220927298258378 9.3957215211672249 -0.4952965486302352
0.0 9.3812131955339329 -0.5220927298258378
ITEM: ATOMS id type x y z fx fy fz
1 2 0.0287924662535357 0.0469913295162535 -0.0032674765560045 -0.1925934534044029 -0.1214905921657533 0.017404833513011
2 2 1.4906766850912464 1.4022134395570334 1.6446486289486402 -0.604685167039545 0.2292520015394163 -0.1946889034166793
3 2 -0.0811109770075295 -0.272128513367153 3.1110776602151247 -0.5100073361658464 0.1531398577744868 0.1530665813016649
4 2 1.2146979300948189 1.3259470054469445 4.6501791976221326 0.1181250166245633 -0.351373799813162 -0.0241210721903956
5 2 -0.3910798693683748 -0.3493916848823984 6.2530682941521727 0.6397745702144452 -0.1332996742594779 0.2373239835192222
6 2 1.1456128443705849 1.0866470449600809 7.9191117179145474 -0.9228040466026648 0.173706892477803 -0.9313707090516264
7 2 -0.1773653471536738 3.086370882939137 0.0207756347428294 0.1516753567597719 0.0014156500328336 -0.015823347252212
8 2 1.2679940481478422 4.548446317477036 1.509276784415766 -0.4401496607443078 -0.2768364574378268 0.5311811514862146
9 2 -0.3680304273298266 2.8649806625588724 3.1917786086083857 0.0164324418631424 0.2460616244047684 -0.4438217119191951
10 2 1.0869364959008625 4.4239365372012207 4.7068154579262096 -0.5509030642029844 -0.4285552658604299 -0.5849853658198372
11 2 -0.5789102698428104 2.7100715111100638 6.2385799484929905 0.732274418627531 0.2966838400449024 0.3574071531859324
12 2 0.9863351215039222 4.2132487470831883 7.739891144784429 -0.721263407311488 0.0630182808477269 0.1703767981760847
13 2 -0.35111255344488 6.1853150770782772 0.0769888023317883 0.5374788143820058 0.5476439323802096 -0.1813862668295419
14 2 1.1106335312067268 7.8123450000280342 1.5866201966063458 -0.6076784466767134 -0.577272824222505 -0.626274987037197
15 2 -0.563556844946678 6.0478575483102048 3.0505528870414982 0.885777316330525 0.4282431337972516 0.4873677342786086
16 2 1.0008813188819934 7.5135772502450386 4.7896834665676398 -0.8637077282687126 -0.1754004788864981 -0.7498782556141006
17 2 -0.7468944619358674 5.8454628340808386 6.3013402647711123 0.567519854245121 0.665649906875241 0.124610627245382
18 2 0.8411057075966658 7.3690684419286994 7.9080128045829108 -0.8933201650434274 -0.475228522391539 -0.7305499789671214
19 2 3.0346432137403308 0.0672796457719161 -0.0149527157123615 1.0194999372489226 -0.4403679475001879 0.45613473045759
20 2 4.5303236685018646 1.4771825502697046 1.502417241327192 0.4182687917388158 0.1249512985663963 0.0458846988393725
21 2 3.0582632467533379 -0.2552987157739674 3.0546355910241947 0.3947606708158149 0.3800413557541201 0.9777169211145616
22 2 4.2923576177957577 1.3992056569218432 4.7133672972219714 0.3955417723050536 -0.619633053274358 0.1022258217952199
23 2 2.7289031937001408 -0.3196376402079677 6.2768280928125009 0.493597262910197 0.1537337828699909 0.0216430418568594
24 2 4.226142466281936 1.051850370220399 7.8635439777934418 0.0491011503306091 0.6494825458664124 0.0190523971545653
25 2 2.904961954004325 3.184100658248255 -0.0308548102001111 0.703612004895192 0.0052581654234436 0.2880881241172429
26 2 4.4140664467362987 4.6139647356736742 1.539544330669837 0.0909443303058132 0.2602806025678264 0.369138330819078
27 2 2.8577168407915048 2.8920253641739224 3.091815215160735 0.026760824985002 0.6497059748309114 0.0947431369231609
28 2 4.140653386045619 4.5261707512740356 4.6303482510480932 0.0475957687573725 -0.4284457368168434 -0.1341782206020483
29 2 2.579055978457061 2.7280064688459258 6.2623434996385967 0.6346318473745 0.3124094853333517 0.366731777185347
30 2 4.0882686931198506 4.337850157979787 7.8984861825828468 -0.5014177908885298 -0.3451499276110547 -0.4719367375440328
31 2 2.7043740812494086 6.2415176941516784 0.0661291099366383 0.4741645994282506 0.0281561632937902 0.0490535849008826
32 2 4.2731694892637098 7.7052241041171144 1.596872924507745 -0.5570950547116534 -0.615672781306371 -0.8838466741044902
33 2 2.554642952770628 6.0695490792783673 3.051066039403294 0.3599623166487549 0.3428138222354052 0.3375183757994732
34 2 4.1210270294431197 7.5376353544428776 4.7268565436758294 -0.8448808169620942 0.3485435281892186 -0.1985442743288369
35 2 2.3876408213438478 5.855606028151601 6.2161579108343448 0.833389009140167 0.3584283958176823 0.6179700630069466
36 2 3.8903484707774352 7.3077794303015775 7.798474006826579 -0.7800031134777068 0.0927003945492301 -0.1757519488456124
37 2 6.2438204006329734 -0.0859877902025633 -0.0927867653530675 0.119590803191433 0.4554189350178136 0.663120454455514
38 2 7.622241666177506 1.5193044864262116 1.4998852518857172 0.0164882348266594 -0.644318225750267 0.1837210866530366
39 2 6.0372777795968684 -0.2700416543216998 3.0914925014268087 0.6121861067522016 1.0350941991071545 0.5944732549429076
40 2 7.5015346749847228 1.2054535748561026 4.7618897462332308 -0.3733665118561192 -0.2112588993603822 -0.7751588958480994
41 2 6.0124409465398481 -0.2978395212465977 6.354386334785259 -0.97905029580949 -0.6397632573554832 -0.920053736322748
42 2 7.312498802279019 1.1570167318683535 7.8003174152195012 0.1995565180955035 0.4085538741052128 0.6587292654052478
43 2 6.1344744238496727 3.2058788212843341 0.0797806513787792 -0.4815069020050086 -0.5430737944699992 -0.901947505554094
44 2 7.4441892095654749 4.6669751198819816 1.5454244751007974 0.1527883878153724 -0.3247551568964777 0.3083347992235902
45 2 6.0060844304384968 2.9011336526817546 3.1893113495379599 -0.5322959823148318 -0.1564722660700837 -0.349483781035218
46 2 7.3824387469697017 4.3638783207169025 4.6780611013605792 -0.0268963221821148 0.473758879168205 0.1079879236633336
47 2 5.765176272952873 2.8781123693942218 6.270517350695866 -0.3072747329167661 -0.1690814758249376 -0.0565969478346467
48 2 7.2659120188068549 4.2584204741512357 7.83762650009814 -0.5511226365110192 -0.192182848046169 -0.0627460009013465
49 2 6.0035326500253721 6.3529881147303948 -0.042317714603734 -0.2104734269938172 -0.4688490983787042 -0.1448313341982031
50 2 7.3340365832336554 7.7369917502756512 1.4808592134038548 0.413966048676798 0.6302632840421578 0.5217961065355258
51 2 5.872358692358577 6.1493194742165054 3.1787875045752103 -0.8393786537396752 -0.8888639270541296 -0.7623195722575414
52 2 7.2019175337683574 7.4973854240427702 4.6287271774079048 0.6546882607619412 0.9063710905186604 0.8797953850439454
53 2 5.5203359193812584 5.992385027969239 6.1663061439132774 0.8977596908547128 -0.6542254619862238 0.5728770071844818
54 2 6.9684725744567074 7.4636054727811222 7.799809891585623 0.6339615604810024 -0.5392091675823272 0.0048218490221143
ITEM: TIMESTEP energy, energy_weight, force_weight, nsims
3 -3691.3189039962423138 1 1 500
ITEM: NUMBER OF ATOMS
54
ITEM: BOX BOUNDS xy xz yz pp pp pp
-0.9842305495299172 9.4107294430412996 -0.4921152747649586
-0.5185594244999048 9.3978555651632192 -0.4921152747649586
0.0 9.3835324349509115 -0.5185594244999048
ITEM: ATOMS id type x y z fx fy fz
1 2 0.0754230674885532 0.0138451234428962 0.0295693874090173 -0.9488274788716902 -0.8272605249079434 -0.1481318608003616
2 2 1.3311003111625606 1.5853179791241692 1.4758072622990702 0.0920663602264971 -0.0753163869811264 0.762911440469598
3 2 -0.1099338275168567 -0.2157272980359132 3.1571317136351911 -0.4254593991613108 0.5507490550548428 -0.133086015491355
4 2 1.2539127378510182 1.3450938847621657 4.690917946143336 -0.3486456010303075 -0.2897292599980232 0.0448295176307367
5 2 -0.2594747524389961 -0.456671217416964 6.3553717445146587 -0.8893470375538928 0.6487371827270764 -0.941407271834353
6 2 1.0253730127618352 1.0811602848722326 7.9261572454138146 -0.1674843058278504 0.0102227107347375 -1.1209508282052467
7 2 -0.2310258164321369 3.0369595645948624 -0.0269926694023798 0.67211134911555 1.2820371980692336 0.5058712006630868
8 2 1.28012653894516 4.5738986669965858 1.5553495900436616 -0.2931087195024847 -0.1131165054295763 -0.5097761938884186
9 2 -0.2714464716198637 3.0682460584736839 3.1772349935238298 -0.5036173706253426 -0.909346886646524 -0.6095350410986334
10 2 0.9894301367579184 4.404796996316879 4.7591953431997682 0.7646227674980288 0.2664106294626355 0.0159866123758679
11 2 -0.579054489882543 2.9041793863771158 6.1886160512599027 0.6714906845352266 -1.1207191717069569 0.5093918137941422
12 2 0.8229078225767098 4.3755360994831909 7.7558132893559328 0.5079645937919156 -0.4632906279719062 0.0526371900875217
13 2 -0.2699321493709559 6.1943494323833015 -0.1092299476622896 -0.173370849144546 0.5646602720320488 0.8744420887610488
14 2 1.0519352949722312 7.6863350978101402 1.6480119728388022 -0.2319529466165898 -0.3513707144879906 -0.3994117985117757
15 2 -0.462058819264295 5.9939940553811474 3.2348320539628026 -0.4217935186367664 -0.0803758060414424 -0.7566495159237092
16 2 0.8522777495309516 7.5615562640274492 4.6584218349678572 0.4545619859514434 -0.1080995095903677 0.2282996645031621
17 2 -0.7709096588311338 5.8962645872597514 6.1795402986888179 0.5693119139488714 0.7662250797037352 0.2904442841065067
18 2 0.6972939709413136 7.4769846186757034 7.7872537531324806 0.682813570804017 -0.7951546311738354 0.271821261371635
19 2 3.1152466404112431 0.0967690113885374 0.0651789546464125 0.0619001075835073 -0.6181765226830026 -0.096952743966781
20 2 4.617624796863673 1.5124823156318774 1.577322069593343 -0.5999931587850624 0.1748070680118559 -0.2482951427184672
21 2 2.8952412946291908 -0.1493291393206498 3.0779450217698843 0.523880757909702 0.4133410132191484 0.3463364922499082
22 2 4.449677478962558 1.2081021544469399 4.810300875900242 -0.6640553079824634 0.0245422190762985 -0.4757262881858662
23 2 2.804820392805353 -0.4366720246143027 6.1999288379634789 0.0860003538289956 0.6075527196759768 0.553721765857535
24 2 4.2452666512758111 1.2258669018544433 7.8826167165623984 -0.6143576614520406 -0.6863709507266988 -1.1727611511468197
25 2 2.9213717586718464 3.0535684603448985 -0.0942857339063868 0.2495986926034048 0.714942861587342 0.561849283690427
26 2 4.3360130301347901 4.62218623718661 1.4623878725638464 -0.0896281820097588 0.0081534859864184 0.4212165628297053
27 2 2.8201222735178094 2.891263990697417 3.0608773146239519 0.1927808869085684 0.049264415454265 0.3805501772969784
28 2 4.1370496637441923 4.453393040838372 4.6196847363698934 0.4241782178838663 -0.8113045086733592 -0.0252793546818441
29 2 2.521022443059556 2.802274430589896 6.2764384080250953 0.3619068428380612 -0.168697867061954 0.1795947213466533
30 2 3.9313735458085976 4.2123557035355255 7.8557694919127616 0.2655235984758437 0.5708160099699532 -0.1561765890744864
31 2 2.7577302200195732 6.3347134550221824 -0.0012517632268225 -0.1390733460969846 -0.0591441408741096 -0.1948259432763779
32 2 4.2111092981221203 7.7196776917060302 1.5946318718760966 -0.0493703449518181 -0.026014690514373 -0.0563778897474738
33 2 2.6416156767095874 6.0003831288084015 3.1298819354440939 0.0716142538858174 0.5826490033337566 0.2458603069373313
34 2 4.0844236423832889 7.5527592069903512 4.8081867660426472 -0.3387069973217744 0.0408964993684309 -0.9423408398091476
35 2 2.4993006022875268 5.8153938853900904 6.1533733801407138 0.097956760199657 0.7999289147662234 0.7014597334776748
36 2 3.8984080071457914 7.4051320843877458 7.8434460987659414 -0.3730063001423523 -0.497119418703838 -0.1221595935070961
37 2 6.1478860413886123 0.0980272402109111 -0.0102730913097843 0.8279583226175532 -0.4971217326977166 0.2559773452849466
38 2 7.6882488717553832 1.5230284091847838 1.6015925762363434 0.2277756734448775 -0.3720999858732389 -0.2339386104748487
39 2 6.0558801643636038 -0.0984894385273923 3.0803406376005267 0.4219783810366224 -0.3185477397619514 0.169410320066128
40 2 7.4168980776252154 1.3680258680925974 4.7723876514500666 0.685910208834429 -0.9501955634747972 -0.4818401171235252
41 2 5.9865066579490556 -0.4222649216397348 6.3487769979193765 0.2101145008322052 0.4671547406387162 0.1770153895033212
42 2 7.3282463992362104 1.1759866746494929 7.9189441240310688 -0.3942847594081188 -0.689532894806573 -0.9043972537402254
43 2 6.0295837446688214 3.256004663159831 -0.0745896993254248 0.65573881398282 -0.0015269788494368 0.431437730901857
44 2 7.4944641856277956 4.522755856969181 1.5698837434321576 0.460196046824942 0.6107493736640298 0.0818523912464121
45 2 6.032923157437752 2.9150251730326792 3.0639447913769375 -0.555740854071818 0.4847770895763146 0.6358312675349012
46 2 7.3849341789783934 4.3934740188934294 4.6995470425705168 -1.0048742103840951 0.0039278760536867 -0.613839069712806
47 2 5.8290501932758856 2.7456706868434862 6.2070631376737726 -0.5093604463215656 0.8235229105731628 0.6077933750393498
48 2 7.2763675437162707 4.2075413868194449 7.7687982215394182 -0.7547088463908672 0.2111601689548957 0.2116193681845799
49 2 5.988810651417551 6.2188923294016751 0.0461106783853488 -0.0966017882285286 -0.0536324645657452 -0.46761651097271
50 2 7.4379416951065825 7.686536627011451 1.5509524667446438 -0.0796780083318328 0.1835380240261973 0.03939266045778
51 2 5.7730267544268444 6.0924295520073297 3.1647595871515626 -0.2697072994083298 -0.5382156928771204 -0.5753336973522488
52 2 7.1097850692788649 7.590215628189835 4.608175833838426 0.4223694460021037 0.5300467802648446 0.4878637002999194
53 2 5.5440453036781836 5.8393421520329092 6.2008587460277829 0.2816163974596956 -0.2333328582995207 0.3914783990542541
54 2 7.0180723682927431 7.2989868102078282 7.7190364106836302 -0.0071862365451688 0.2640009905037331 0.9499129991111788
ITEM: TIMESTEP energy, energy_weight, force_weight, nsims
4 -3691.2458474592278058 1 1 500
ITEM: NUMBER OF ATOMS
54
ITEM: BOX BOUNDS xy xz yz pp pp pp
-0.9778785962453956 9.4126344811376992 -0.4889392981226978
-0.5150311209044116 9.3999274245881637 -0.4889392981226978
0.0 9.3858084728664562 -0.5150311209044116
ITEM: ATOMS id type x y z fx fy fz
1 2 -0.0089243487869407 -0.0184103229250354 0.1089927008911617 -0.0937563470891588 0.0714075370993303 -0.2016033742363295
2 2 1.3697457495004106 1.5240598641096724 1.58269790961151 0.2016928486663016 -0.1583741119278516 -0.2202305107380966
3 2 -0.2541598518970954 -0.1387751347906844 3.0792969823588741 0.3876554240563967 -0.0837395818096157 0.3025202468275618
4 2 1.1856859551813119 1.3838821871748493 4.659580862031163 -0.3238645263636525 -0.4379626794186117 0.1233587565570663
5 2 -0.266415802884538 -0.3508107497274114 6.3155115422522137 -0.3094228905673882 0.0516946232476437 -0.4234806772846876
6 2 0.9786841167737036 1.1760441917599665 7.942345277626531 -0.0512125411896047 -0.6414146776535018 -0.7342099459517538
7 2 -0.2767893914285965 3.0266183417151509 0.0407081285085164 0.61517398707032 0.9851921497841232 0.506459212218679
8 2 1.280606920417301 4.7172795726706278 1.6058498833715298 -0.8347951460870552 -0.972622020814774 -1.2541281178995905
9 2 -0.3063087232966251 2.9743140371650436 3.0430227097729401 -8.7983189472514098e-04 0.2690087303674274 0.5919270903451686
10 2 1.1917190734956302 4.4054559561039595 4.771218483749978 -0.6527892431189138 0.1010893936904025 -0.3766834935258588
11 2 -0.4585368446826896 2.8107985906607836 6.3506257289109023 0.2763147803734208 -0.1490857404992015 -0.8554650249627532
12 2 0.9352255650438696 4.33193385306922 7.748476710715237 0.0590376971556946 -0.4689149186490286 0.6049469054582562
13 2 -0.4115961293620698 6.1928686834410982 -0.0111353231722088 0.3818095041877919 0.0992217435199515 0.4047201004692554
14 2 1.1722697366545472 7.7288548472174634 1.5046408334469164 -0.3857751754748289 -0.3002142233723339 0.1433120686616949
15 2 -0.5881127732769178 6.0465485535618226 3.1093024734657813 0.7780025372144524 0.4797752632525324 0.1203508216253335
16 2 0.9253329227299222 7.625424362581935 4.7745973748002104 -0.4272727990308306 -0.5364655421736154 -0.8420520880007364
17 2 -0.7007390993782188 5.8353203397968318 6.3162595911875013 0.6823268607582208 0.8626224651396552 0.0177573319138492
18 2 0.7539268379602374 7.3512502706019438 7.7395939815765162 -0.1985543016356442 0.5914293245508414 0.8617184648644202
19 2 3.1648285828922065 0.0229498049458881 -0.0077920981941737 -0.6539986905861222 -0.0570618034938119 -0.6497460840581404
20 2 4.560599474810374 1.3645636535971229 1.5628976080571512 -0.2084255424112673 1.1009676912906272 0.4067615572910314