ITEM: TIMESTEP energy, energy_weight, force_weight, nsims
0 -68.4375051859256871 1 1 594
ITEM: NUMBER OF ATOMS
1
ITEM: BOX BOUNDS xy xz yz pp pp pp
0.0 5.4137770687344729 1.3534442671836182
0.0 3.1256456479664712 1.3534442671836182
0.0 2.2101652332633117 0.7814114119916178
ITEM: ATOMS id type x y z fx fy fz
1 2 0.0 0.0 0.0 0.0 0.0 0.0
ITEM: TIMESTEP energy, energy_weight, force_weight, nsims
1 -68.4798850223779994 1 1 594
ITEM: NUMBER OF ATOMS
1
ITEM: BOX BOUNDS xy xz yz pp pp pp
0.0 5.4687317988362906 1.3671829497090726
0.0 3.1573737761839986 1.3671829497090726
0.0 2.2326004078802817 0.7893434440459998
ITEM: ATOMS id type x y z fx fy fz
1 2 0.0 0.0 0.0 0.0 0.0 0.0
ITEM: TIMESTEP energy, energy_weight, force_weight, nsims
2 -68.483916772216162 1 1 594
ITEM: NUMBER OF ATOMS
1
ITEM: BOX BOUNDS xy xz yz pp pp pp
0.0 5.4748150534872284 1.3687037633718073
0.0 3.1608859448942668 1.3687037633718073
0.0 2.2350838861919838 0.7902214862235666
ITEM: ATOMS id type x y z fx fy fz
1 2 0.0 0.0 0.0 0.0 0.0 0.0
ITEM: TIMESTEP energy, energy_weight, force_weight, nsims
3 -68.4878196769459464 1 1 594
ITEM: NUMBER OF ATOMS
1
ITEM: BOX BOUNDS xy xz yz pp pp pp
0.0 5.4808754816666828 1.3702188704166707
0.0 3.1643849347350788 1.3702188704166707
0.0 2.2375580456357249 0.7910962336837696
ITEM: ATOMS id type x y z fx fy fz
1 2 0.0 0.0 0.0 0.0 0.0 0.0
ITEM: TIMESTEP energy, energy_weight, force_weight, nsims
4 -68.491595369240315 1 1 594
ITEM: NUMBER OF ATOMS
1
ITEM: BOX BOUNDS xy xz yz pp pp pp
0.0 5.4869359098461352 1.3717339774615336
0.0 3.1678839245758908 1.3717339774615336
0.0 2.2400322050794652 0.7919709811439728
ITEM: ATOMS id type x y z fx fy fz
1 2 0.0 0.0 0.0 0.0 0.0 0.0
ITEM: TIMESTEP energy, energy_weight, force_weight, nsims
5 -68.4952456178283172 1 1 594
ITEM: NUMBER OF ATOMS
1
ITEM: BOX BOUNDS xy xz yz pp pp pp
0.0 5.4929849247898446 1.3732462311974609
0.0 3.1713763249819729 1.3732462311974609
0.0 2.2425017050892251 0.7928440812454932
ITEM: ATOMS id type x y z fx fy fz
1 2 0.0 0.0 0.0 0.0 0.0 0.0
ITEM: TIMESTEP energy, energy_weight, force_weight, nsims
6 -68.498772055382915 1 1 594
ITEM: NUMBER OF ATOMS
1
ITEM: BOX BOUNDS xy xz yz pp pp pp
0.0 5.4990339397335548 1.3747584849333887
0.0 3.1748687253880559 1.3747584849333887
0.0 2.2449712050989854 0.793717181347014
ITEM: ATOMS id type x y z fx fy fz
1 2 0.0 0.0 0.0 0.0 0.0 0.0
ITEM: TIMESTEP energy, energy_weight, force_weight, nsims
7 -68.5021764506331722 1 1 594
ITEM: NUMBER OF ATOMS
1
ITEM: BOX BOUNDS xy xz yz pp pp pp
0.0 5.505071541441522 1.3762678853603803
0.0 3.1783545363594108 1.3762678853603803
0.0 2.2474360456747644 0.7945886340898528
ITEM: ATOMS id type x y z fx fy fz
1 2 0.0 0.0 0.0 0.0 0.0 0.0
ITEM: TIMESTEP energy, energy_weight, force_weight, nsims
8 -68.5054603001959492 1 1 594
ITEM: NUMBER OF ATOMS
1
ITEM: BOX BOUNDS xy xz yz pp pp pp
0.0 5.51110914314949 1.3777772857873725
0.0 3.1818403473307653 1.3777772857873725
0.0 2.2499008862505439 0.7954600868326912
ITEM: ATOMS id type x y z fx fy fz
1 2 0.0 0.0 0.0 0.0 0.0 0.0
ITEM: TIMESTEP energy, energy_weight, force_weight, nsims
9 -68.5086253728003244 1 1 594
ITEM: NUMBER OF ATOMS
1
ITEM: BOX BOUNDS xy xz yz pp pp pp
0.0 5.517135331621713 1.3792838329054282
0.0 3.1853195688673912 1.3792838329054282
0.0 2.2523610673923425 0.7963298922168478
ITEM: ATOMS id type x y z fx fy fz
1 2 0.0 0.0 0.0 0.0 0.0 0.0
ITEM: TIMESTEP energy, energy_weight, force_weight, nsims
10 -68.5116730290070848 1 1 594
ITEM: NUMBER OF ATOMS
1
ITEM: BOX BOUNDS xy xz yz pp pp pp
0.0 5.5231501068581946 1.3807875267145487
0.0 3.1887922009692886 1.3807875267145487
0.0 2.2548165891001602 0.7971980502423224
ITEM: ATOMS id type x y z fx fy fz
1 2 0.0 0.0 0.0 0.0 0.0 0.0
ITEM: TIMESTEP energy, energy_weight, force_weight, nsims
11 -68.442777903275541 1 1 594
ITEM: NUMBER OF ATOMS
1
ITEM: BOX BOUNDS xy xz yz pp pp pp
0.0 5.4199059763283826 1.3549764940820957
0.0 3.129184174415653 1.3549764940820957
0.0 2.2126673493109368 0.7822960436039132
ITEM: ATOMS id type x y z fx fy fz
1 2 0.0 0.0 0.0 0.0 0.0 0.0
ITEM: TIMESTEP energy, energy_weight, force_weight, nsims
12 -68.5146050375452802 1 1 594
ITEM: NUMBER OF ATOMS
1
ITEM: BOX BOUNDS xy xz yz pp pp pp
0.0 5.5291648820946762 1.3822912205236691
0.0 3.192264833071186 1.3822912205236691
0.0 2.2572721108079779 0.7980662082677964
ITEM: ATOMS id type x y z fx fy fz
1 2 0.0 0.0 0.0 0.0 0.0 0.0
ITEM: TIMESTEP energy, energy_weight, force_weight, nsims
13 -68.5174228950318138 1 1 594
ITEM: NUMBER OF ATOMS
1
ITEM: BOX BOUNDS xy xz yz pp pp pp
0.0 5.5351682440954146 1.3837920610238537
0.0 3.1957308757383558 1.3837920610238537
0.0 2.2597229730818156 0.798932718934589
ITEM: ATOMS id type x y z fx fy fz
1 2 0.0 0.0 0.0 0.0 0.0 0.0
ITEM: TIMESTEP energy, energy_weight, force_weight, nsims
14 -68.5201282341396336 1 1 594
ITEM: NUMBER OF ATOMS
1
ITEM: BOX BOUNDS xy xz yz pp pp pp
0.0 5.5411716060961532 1.3852929015240383
0.0 3.1991969184055247 1.3852929015240383
0.0 2.2621738353556524 0.7997992296013812
ITEM: ATOMS id type x y z fx fy fz
1 2 0.0 0.0 0.0 0.0 0.0 0.0
ITEM: TIMESTEP energy, energy_weight, force_weight, nsims
15 -68.5227224154295556 1 1 594
ITEM: NUMBER OF ATOMS
1
ITEM: BOX BOUNDS xy xz yz pp pp pp
0.0 5.5471635548611484 1.3867908887152871
0.0 3.2026563716379655 1.3867908887152871
0.0 2.2646200381955093 0.8006640929094914
ITEM: ATOMS id type x y z fx fy fz
1 2 0.0 0.0 0.0 0.0 0.0 0.0
ITEM: TIMESTEP energy, energy_weight, force_weight, nsims
16 -68.5252069355184688 1 1 594
ITEM: NUMBER OF ATOMS
1
ITEM: BOX BOUNDS xy xz yz pp pp pp
0.0 5.5531555036261438 1.3882888759065362
0.0 3.2061158248704058 1.3882888759065362
0.0 2.2670662410353657 0.8015289562176016
ITEM: ATOMS id type x y z fx fy fz
1 2 0.0 0.0 0.0 0.0 0.0 0.0
ITEM: TIMESTEP energy, energy_weight, force_weight, nsims
17 -68.5275834270793496 1 1 594
ITEM: NUMBER OF ATOMS
1
ITEM: BOX BOUNDS xy xz yz pp pp pp
0.0 5.5591360391553978 1.3897840097888494
0.0 3.209568688668119 1.3897840097888494
0.0 2.2695077844412417 0.8023921721670298
ITEM: ATOMS id type x y z fx fy fz
1 2 0.0 0.0 0.0 0.0 0.0 0.0
ITEM: TIMESTEP energy, energy_weight, force_weight, nsims
18 -68.5298531146168984 1 1 594
ITEM: NUMBER OF ATOMS
1
ITEM: BOX BOUNDS xy xz yz pp pp pp
0.0 5.5651051614489076 1.3912762903622269
0.0 3.2130149630311022 1.3912762903622269
0.0 2.2719446684131368 0.8032537407577754
ITEM: ATOMS id type x y z fx fy fz
1 2 0.0 0.0 0.0 0.0 0.0 0.0
ITEM: TIMESTEP energy, energy_weight, force_weight, nsims
19 -68.5320177668601788 1 1 594
ITEM: NUMBER OF ATOMS
1
ITEM: BOX BOUNDS xy xz yz pp pp pp
0.0 5.5710742837424174 1.3927685709356044
0.0 3.2164612373940864 1.3927685709356044
0.0 2.2743815523850319 0.8041153093485216
ITEM: ATOMS id type x y z fx fy fz
1 2 0.0 0.0 0.0 0.0 0.0 0.0
ITEM: TIMESTEP energy, energy_weight, force_weight, nsims
20 -68.5340784722578462 1 1 594
ITEM: NUMBER OF ATOMS
1
ITEM: BOX BOUNDS xy xz yz pp pp pp
0.0 5.5770434060359282 1.3942608515089821
0.0 3.2199075117570697 1.3942608515089821
0.0 2.2768184363569271 0.8049768779392674
ITEM: ATOMS id type x y z fx fy fz
1 2 0.0 0.0 0.0 0.0 0.0 0.0
ITEM: TIMESTEP energy, energy_weight, force_weight, nsims
21 -68.536036863482849 1 1 594
ITEM: NUMBER OF ATOMS
1
ITEM: BOX BOUNDS xy xz yz pp pp pp
0.0 5.5829897018579518 1.395747425464488
0.0 3.2233406072505968 1.395747425464488
0.0 2.2792460014608609 0.8058351518126494
ITEM: ATOMS id type x y z fx fy fz
1 2 0.0 0.0 0.0 0.0 0.0 0.0
ITEM: TIMESTEP energy, energy_weight, force_weight, nsims
22 -68.4479053127312511 1 1 594
ITEM: NUMBER OF ATOMS
1
ITEM: BOX BOUNDS xy xz yz pp pp pp
0.0 5.4260348839222932 1.3565087209805733
0.0 3.1327227008648353 1.3565087209805733
0.0 2.2151694653585614 0.7831806752162088
ITEM: ATOMS id type x y z fx fy fz
1 2 0.0 0.0 0.0 0.0 0.0 0.0
ITEM: TIMESTEP energy, energy_weight, force_weight, nsims
23 -68.537894301096003 1 1 594
ITEM: NUMBER OF ATOMS
1
ITEM: BOX BOUNDS xy xz yz pp pp pp
0.0 5.5889474109157186 1.3972368527289296
0.0 3.2267802921788525 1.3972368527289296
0.0 2.2816782259987756 0.8066950730447134
ITEM: ATOMS id type x y z fx fy fz
1 2 0.0 0.0 0.0 0.0 0.0 0.0
ITEM: TIMESTEP energy, energy_weight, force_weight, nsims
24 -68.5396521456581098 1 1 594
ITEM: NUMBER OF ATOMS
1
ITEM: BOX BOUNDS xy xz yz pp pp pp
0.0 5.5948822935019998 1.3987205733755002
0.0 3.2302067982376506 1.3987205733755002
0.0 2.2841011316687285 0.8075516995594126
ITEM: ATOMS id type x y z fx fy fz
1 2 0.0 0.0 0.0 0.0 0.0 0.0
ITEM: TIMESTEP energy, energy_weight, force_weight, nsims
25 -68.5413116216739128 1 1 594
ITEM: NUMBER OF ATOMS
1
ITEM: BOX BOUNDS xy xz yz pp pp pp
0.0 5.600817176088282 1.4002042940220705
0.0 3.2336333042964487 1.4002042940220705
0.0 2.286524037338682 0.8084083260741124
ITEM: ATOMS id type x y z fx fy fz
1 2 0.0 0.0 0.0 0.0 0.0 0.0
ITEM: TIMESTEP energy, energy_weight, force_weight, nsims
26 -68.5428740897042132 1 1 594
ITEM: NUMBER OF ATOMS
1
ITEM: BOX BOUNDS xy xz yz pp pp pp
0.0 5.6067520586745642 1.4016880146686408
0.0 3.2370598103552482 1.4016880146686408
0.0 2.2889469430086354 0.809264952588812
ITEM: ATOMS id type x y z fx fy fz
1 2 0.0 0.0 0.0 0.0 0.0 0.0
ITEM: TIMESTEP energy, energy_weight, force_weight, nsims
27 -68.5443410463658722 1 1 594
ITEM: NUMBER OF ATOMS
1
ITEM: BOX BOUNDS xy xz yz pp pp pp
0.0 5.6126755280251022 1.4031688820062756
0.0 3.2404797269793173 1.4031688820062756
0.0 2.2913651892446074 0.8101199317448294
ITEM: ATOMS id type x y z fx fy fz
1 2 0.0 0.0 0.0 0.0 0.0 0.0
ITEM: TIMESTEP energy, energy_weight, force_weight, nsims
28 -68.5457137161636468 1 1 594
ITEM: NUMBER OF ATOMS
1
ITEM: BOX BOUNDS xy xz yz pp pp pp
0.0 5.6185875841398972 1.4046468960349743
0.0 3.2438930541686588 1.4046468960349743
0.0 2.2937787760465991 0.8109732635421648
ITEM: ATOMS id type x y z fx fy fz
1 2 0.0 0.0 0.0 0.0 0.0 0.0
ITEM: TIMESTEP energy, energy_weight, force_weight, nsims
29 -68.5469933236022372 1 1 594
ITEM: NUMBER OF ATOMS
1
ITEM: BOX BOUNDS xy xz yz pp pp pp
0.0 5.6244996402546938 1.4061249100636735
0.0 3.2473063813580003 1.4061249100636735
0.0 2.2961923628485908 0.8118265953395002
ITEM: ATOMS id type x y z fx fy fz
1 2 0.0 0.0 0.0 0.0 0.0 0.0
ITEM: TIMESTEP energy, energy_weight, force_weight, nsims
30 -68.5481812292424736 1 1 594
ITEM: NUMBER OF ATOMS
1
ITEM: BOX BOUNDS xy xz yz pp pp pp
0.0 5.6304116963694888 1.4076029240923722
0.0 3.2507197085473423 1.4076029240923722
0.0 2.2986059496505829 0.8126799271368358
ITEM: ATOMS id type x y z fx fy fz
1 2 0.0 0.0 0.0 0.0 0.0 0.0
ITEM: TIMESTEP energy, energy_weight, force_weight, nsims
31 -68.5492786575890706 1 1 594
ITEM: NUMBER OF ATOMS
1
ITEM: BOX BOUNDS xy xz yz pp pp pp
0.0 5.6363123392485424 1.4090780848121354
0.0 3.2541264463019553 1.4090780848121354
0.0 2.3010148770185941 0.8135316115754888
ITEM: ATOMS id type x y z fx fy fz
1 2 0.0 0.0 0.0 0.0 0.0 0.0
ITEM: TIMESTEP energy, energy_weight, force_weight, nsims
32 -68.5502868331467568 1 1 594
ITEM: NUMBER OF ATOMS
1
ITEM: BOX BOUNDS xy xz yz pp pp pp
0.0 5.6422015688918528 1.410550392222963
0.0 3.2575265946218402 1.410550392222963
0.0 2.3034191449526249 0.81438164865546
ITEM: ATOMS id type x y z fx fy fz
1 2 0.0 0.0 0.0 0.0 0.0 0.0
ITEM: TIMESTEP energy, energy_weight, force_weight, nsims
33 -68.4528891830218812 1 1 594
ITEM: NUMBER OF ATOMS
1
ITEM: BOX BOUNDS xy xz yz pp pp pp
0.0 5.4321523782804597 1.358038094570115
0.0 3.1362546378792886 1.358038094570115
0.0 2.2176669219722052 0.784063659469822
ITEM: ATOMS id type x y z fx fy fz
1 2 0.0 0.0 0.0 0.0 0.0 0.0
ITEM: TIMESTEP energy, energy_weight, force_weight, nsims
34 -68.551206980420247 1 1 594
ITEM: NUMBER OF ATOMS
1
ITEM: BOX BOUNDS xy xz yz pp pp pp
0.0 5.6480907985351624 1.4120226996337906
0.0 3.2609267429417242 1.4120226996337906
0.0 2.3058234128866548 0.815231685735431
ITEM: ATOMS id type x y z fx fy fz
1 2 0.0 0.0 0.0 0.0 0.0 0.0
ITEM: TIMESTEP energy, energy_weight, force_weight, nsims
35 -68.5520401878582106 1 1 594
ITEM: NUMBER OF ATOMS
1
ITEM: BOX BOUNDS xy xz yz pp pp pp
0.0 5.6539686149427304 1.4134921537356826
0.0 3.2643203018268805 1.4134921537356826
0.0 2.3082230213867048 0.8160800754567202
ITEM: ATOMS id type x y z fx fy fz
1 2 0.0 0.0 0.0 0.0 0.0 0.0
ITEM: TIMESTEP energy, energy_weight, force_weight, nsims
36 -68.5527879520775088 1 1 594
ITEM: NUMBER OF ATOMS
1
ITEM: BOX BOUNDS xy xz yz pp pp pp
0.0 5.659846431350296 1.414961607837574
0.0 3.2677138607120369 1.414961607837574
0.0 2.3106226298867543 0.8169284651780092
ITEM: ATOMS id type x y z fx fy fz
1 2 0.0 0.0 0.0 0.0 0.0 0.0
ITEM: TIMESTEP energy, energy_weight, force_weight, nsims
37 -68.553451361526797 1 1 594
ITEM: NUMBER OF ATOMS
1
ITEM: BOX BOUNDS xy xz yz pp pp pp
0.0 5.6657128345221218 1.4164282086305305
0.0 3.2711008301624647 1.4164282086305305
0.0 2.3130175789528238 0.8177752075406162
ITEM: ATOMS id type x y z fx fy fz
1 2 0.0 0.0 0.0 0.0 0.0 0.0
ITEM: TIMESTEP energy, energy_weight, force_weight, nsims
38 -68.5540313685986434 1 1 594
ITEM: NUMBER OF ATOMS
1
ITEM: BOX BOUNDS xy xz yz pp pp pp
0.0 5.6715678244582026 1.4178919561145507
0.0 3.2744812101781635 1.4178919561145507
0.0 2.315407868584912 0.8186203025445408
ITEM: ATOMS id type x y z fx fy fz
1 2 0.0 0.0 0.0 0.0 0.0 0.0
ITEM: TIMESTEP energy, energy_weight, force_weight, nsims
39 -68.55452933385385 1 1 594
ITEM: NUMBER OF ATOMS
1
ITEM: BOX BOUNDS xy xz yz pp pp pp
0.0 5.6774228143942844 1.4193557035985711
0.0 3.2778615901938628 1.4193557035985711
0.0 2.3177981582170002 0.8194653975484658
ITEM: ATOMS id type x y z fx fy fz
1 2 0.0 0.0 0.0 0.0 0.0 0.0
ITEM: TIMESTEP energy, energy_weight, force_weight, nsims
40 -68.5549463457410724 1 1 594
ITEM: NUMBER OF ATOMS
1
ITEM: BOX BOUNDS xy xz yz pp pp pp
0.0 5.6832778043303654 1.4208194510825914
0.0 3.2812419702095617 1.4208194510825914
0.0 2.3201884478490884 0.8203104925523904
ITEM: ATOMS id type x y z fx fy fz
1 2 0.0 0.0 0.0 0.0 0.0 0.0
ITEM: TIMESTEP energy, energy_weight, force_weight, nsims
41 -68.5552836287650394 1 1 594
ITEM: NUMBER OF ATOMS
1
ITEM: BOX BOUNDS xy xz yz pp pp pp
0.0 5.6891213810307058 1.4222803452576765
0.0 3.2846157607905329 1.4222803452576765
0.0 2.3225740780471966 0.821153940197633
ITEM: ATOMS id type x y z fx fy fz
1 2 0.0 0.0 0.0 0.0 0.0 0.0
ITEM: TIMESTEP energy, energy_weight, force_weight, nsims
42 -68.5555421353182908 1 1 594
ITEM: NUMBER OF ATOMS
1
ITEM: BOX BOUNDS xy xz yz pp pp pp
0.0 5.6949649577310436 1.4237412394327609
0.0 3.2879895513715036 1.4237412394327609
0.0 2.3249597082453044 0.821997387842876
ITEM: ATOMS id type x y z fx fy fz
1 2 0.0 0.0 0.0 0.0 0.0 0.0
ITEM: TIMESTEP energy, energy_weight, force_weight, nsims
43 -68.5557230899055696 1 1 594
ITEM: NUMBER OF ATOMS
1
ITEM: BOX BOUNDS xy xz yz pp pp pp
0.0 5.7007971211956382 1.4251992802989095
0.0 3.2913567525177459 1.4251992802989095
0.0 2.3273406790094313 0.8228391881294366
ITEM: ATOMS id type x y z fx fy fz
1 2 0.0 0.0 0.0 0.0 0.0 0.0
ITEM: TIMESTEP energy, energy_weight, force_weight, nsims
44 -68.4577315549886124 1 1 594
ITEM: NUMBER OF ATOMS
1
ITEM: BOX BOUNDS xy xz yz pp pp pp
0.0 5.4382698726386272 1.3595674681596568
0.0 3.1397865748937433 1.3595674681596568
0.0 2.2201643785858498 0.7849466437234358
ITEM: ATOMS id type x y z fx fy fz
1 2 0.0 0.0 0.0 0.0 0.0 0.0
ITEM: TIMESTEP energy, energy_weight, force_weight, nsims
45 -68.55582744491943 1 1 594
ITEM: NUMBER OF ATOMS
1
ITEM: BOX BOUNDS xy xz yz pp pp pp
0.0 5.7066178714244914 1.4266544678561231
0.0 3.2947173642292591 1.4266544678561231
0.0 2.3297169903395774 0.8236793410573148
ITEM: ATOMS id type x y z fx fy fz
1 2 0.0 0.0 0.0 0.0 0.0 0.0
ITEM: TIMESTEP energy, energy_weight, force_weight, nsims
46 -68.555856424864615 1 1 594
ITEM: NUMBER OF ATOMS
1
ITEM: BOX BOUNDS xy xz yz pp pp pp
0.0 5.7124386216533446 1.4281096554133364
0.0 3.2980779759407733 1.4281096554133364
0.0 2.3320933016697239 0.8245194939851932
ITEM: ATOMS id type x y z fx fy fz
1 2 0.0 0.0 0.0 0.0 0.0 0.0
ITEM: TIMESTEP energy, energy_weight, force_weight, nsims
47 -68.5558109821336644 1 1 594
ITEM: NUMBER OF ATOMS
1
ITEM: BOX BOUNDS xy xz yz pp pp pp
0.0 5.7182479586464546 1.4295619896616139
0.0 3.3014319982175584 1.4295619896616139
0.0 2.3344649535658895 0.8253579995543896
ITEM: ATOMS id type x y z fx fy fz
1 2 0.0 0.0 0.0 0.0 0.0 0.0
ITEM: TIMESTEP energy, energy_weight, force_weight, nsims
48 -68.555692205175248 1 1 594
ITEM: NUMBER OF ATOMS
1
ITEM: BOX BOUNDS xy xz yz pp pp pp
0.0 5.7240572956395646 1.4310143239098912
0.0 3.304786020494344 1.4310143239098912
0.0 2.3368366054620551 0.826196505123586
ITEM: ATOMS id type x y z fx fy fz
1 2 0.0 0.0 0.0 0.0 0.0 0.0
ITEM: TIMESTEP energy, energy_weight, force_weight, nsims
49 -68.5555011824380074 1 1 594
ITEM: NUMBER OF ATOMS
1
ITEM: BOX BOUNDS xy xz yz pp pp pp
0.0 5.7298666326326746 1.4324666581581687
0.0 3.3081400427711296 1.4324666581581687
0.0 2.3392082573582207 0.8270350106927824
ITEM: ATOMS id type x y z fx fy fz
1 2 0.0 0.0 0.0 0.0 0.0 0.0
ITEM: TIMESTEP energy, energy_weight, force_weight, nsims
50 -68.5552390023705698 1 1 594
ITEM: NUMBER OF ATOMS
1
ITEM: BOX BOUNDS xy xz yz pp pp pp
0.0 5.7356645563900424 1.4339161390975106
0.0 3.3114874756131867 1.4339161390975106
0.0 2.3415752498204059 0.8278718689032968
ITEM: ATOMS id type x y z fx fy fz
1 2 0.0 0.0 0.0 0.0 0.0 0.0
ITEM: TIMESTEP energy, energy_weight, force_weight, nsims
51 -68.5549064813094446 1 1 594
ITEM: NUMBER OF ATOMS
1
ITEM: BOX BOUNDS xy xz yz pp pp pp
0.0 5.7414510669116688 1.4353627667279172
0.0 3.3148283190205152 1.4353627667279172
0.0 2.3439375828486107 0.8287070797551288
ITEM: ATOMS id type x y z fx fy fz
1 2 0.0 0.0 0.0 0.0 0.0 0.0
ITEM: TIMESTEP energy, energy_weight, force_weight, nsims
52 -68.5545047077032592 1 1 594
ITEM: NUMBER OF ATOMS
1
ITEM: BOX BOUNDS xy xz yz pp pp pp
0.0 5.7472375774332908 1.4368093943583229
0.0 3.3181691624278429 1.4368093943583229
0.0 2.3462999158768145 0.8295422906069608
ITEM: ATOMS id type x y z fx fy fz
1 2 0.0 0.0 0.0 0.0 0.0 0.0
ITEM: TIMESTEP energy, energy_weight, force_weight, nsims
53 -68.554034633944582 1 1 594
ITEM: NUMBER OF ATOMS
1
ITEM: BOX BOUNDS xy xz yz pp pp pp
0.0 5.7530126747191722 1.4382531686797931
0.0 3.3215034164004429 1.4382531686797931
0.0 2.348657589471038 0.8303758541001108
ITEM: ATOMS id type x y z fx fy fz
1 2 0.0 0.0 0.0 0.0 0.0 0.0
ITEM: TIMESTEP energy, energy_weight, force_weight, nsims
54 -68.553497348482054 1 1 594
ITEM: NUMBER OF ATOMS
1
ITEM: BOX BOUNDS xy xz yz pp pp pp
0.0 5.7587877720050554 1.4396969430012639
0.0 3.3248376703730434 1.4396969430012639
0.0 2.3510152630652619 0.8312094175932608
ITEM: ATOMS id type x y z fx fy fz
1 2 0.0 0.0 0.0 0.0 0.0 0.0
ITEM: TIMESTEP energy, energy_weight, force_weight, nsims
55 -68.4624341973605084 1 1 594
ITEM: NUMBER OF ATOMS
1
ITEM: BOX BOUNDS xy xz yz pp pp pp
0.0 5.4443759537610497 1.3610939884402624
0.0 3.1433119224734685 1.3610939884402624
0.0 2.2226571757655127 0.7858279806183672
ITEM: ATOMS id type x y z fx fy fz
1 2 0.0 0.0 0.0 0.0 0.0 0.0
ITEM: TIMESTEP energy, energy_weight, force_weight, nsims
56 -68.5528936676521852 1 1 594
ITEM: NUMBER OF ATOMS
1
ITEM: BOX BOUNDS xy xz yz pp pp pp
0.0 5.7645514560551936 1.4411378640137984
0.0 3.3281653349109153 1.4411378640137984
0.0 2.3533682772255054 0.8320413337277288
ITEM: ATOMS id type x y z fx fy fz
1 2 0.0 0.0 0.0 0.0 0.0 0.0
ITEM: TIMESTEP energy, energy_weight, force_weight, nsims
57 -68.5522246799035742 1 1 594
ITEM: NUMBER OF ATOMS
1
ITEM: BOX BOUNDS xy xz yz pp pp pp
0.0 5.770315140105331 1.4425787850263328
0.0 3.3314929994487859 1.4425787850263328
0.0 2.3557212913857475 0.8328732498621966
ITEM: ATOMS id type x y z fx fy fz
1 2 0.0 0.0 0.0 0.0 0.0 0.0
ITEM: TIMESTEP energy, energy_weight, force_weight, nsims
58 -68.551491337628832 1 1 594
ITEM: NUMBER OF ATOMS
1
ITEM: BOX BOUNDS xy xz yz pp pp pp
0.0 5.776067410919728 1.444016852729932
0.0 3.3348140745519302 1.444016852729932
0.0 2.3580696461120106 0.8337035186379826
ITEM: ATOMS id type x y z fx fy fz
1 2 0.0 0.0 0.0 0.0 0.0 0.0
ITEM: TIMESTEP energy, energy_weight, force_weight, nsims
59 -68.5506944571644112 1 1 594
ITEM: NUMBER OF ATOMS
1
ITEM: BOX BOUNDS xy xz yz pp pp pp
0.0 5.781819681734124 1.4454549204335312
0.0 3.3381351496550727 1.4454549204335312
0.0 2.3604180008382727 0.834533787413768
ITEM: ATOMS id type x y z fx fy fz
1 2 0.0 0.0 0.0 0.0 0.0 0.0
ITEM: TIMESTEP energy, energy_weight, force_weight, nsims
60 -68.5498349909028804 1 1 594
ITEM: NUMBER OF ATOMS
1
ITEM: BOX BOUNDS xy xz yz pp pp pp
0.0 5.78757195254852 1.44689298813713
0.0 3.341456224758216 1.44689298813713
0.0 2.3627663555645349 0.835364056189554
ITEM: ATOMS id type x y z fx fy fz
1 2 0.0 0.0 0.0 0.0 0.0 0.0
ITEM: TIMESTEP energy, energy_weight, force_weight, nsims
61 -68.548913891236822 1 1 594
ITEM: NUMBER OF ATOMS
1
ITEM: BOX BOUNDS xy xz yz pp pp pp
0.0 5.7933013968914296 1.4483253492228574
0.0 3.3447641209919019 1.4483253492228574
0.0 2.3651053914228357 0.8361910302479756
ITEM: ATOMS id type x y z fx fy fz
1 2 0.0 0.0 0.0 0.0 0.0 0.0
ITEM: TIMESTEP energy, energy_weight, force_weight, nsims
62 -68.5479319745027028 1 1 594
ITEM: NUMBER OF ATOMS
1
ITEM: BOX BOUNDS xy xz yz pp pp pp
0.0 5.7990422544700834 1.4497605636175208
0.0 3.3480786066603168 1.4497605636175208
0.0 2.3674490867151175 0.8370196516650792
ITEM: ATOMS id type x y z fx fy fz
1 2 0.0 0.0 0.0 0.0 0.0 0.0
ITEM: TIMESTEP energy, energy_weight, force_weight, nsims
63 -68.5468903291491786 1 1 594
ITEM: NUMBER OF ATOMS
1
ITEM: BOX BOUNDS xy xz yz pp pp pp
0.0 5.8047716988129938 1.4511929247032482
0.0 3.3513865028940031 1.4511929247032482
0.0 2.3697881225734183 0.837846625723501
ITEM: ATOMS id type x y z fx fy fz
1 2 0.0 0.0 0.0 0.0 0.0 0.0
ITEM: TIMESTEP energy, energy_weight, force_weight, nsims
64 -68.545789635456643 1 1 594
ITEM: NUMBER OF ATOMS
1
ITEM: BOX BOUNDS xy xz yz pp pp pp
0.0 5.8104897299201604 1.4526224324800404
0.0 3.3546878096929609 1.4526224324800404
0.0 2.3721224989977388 0.8386719524232402
ITEM: ATOMS id type x y z fx fy fz
1 2 0.0 0.0 0.0 0.0 0.0 0.0
ITEM: TIMESTEP energy, energy_weight, force_weight, nsims
65 -68.5446308458176788 1 1 594
ITEM: NUMBER OF ATOMS
1
ITEM: BOX BOUNDS xy xz yz pp pp pp
0.0 5.8162077610273278 1.454051940256832
0.0 3.3579891164919182 1.454051940256832
0.0 2.3744568754220588 0.8394972791229796
ITEM: ATOMS id type x y z fx fy fz
1 2 0.0 0.0 0.0 0.0 0.0 0.0
ITEM: TIMESTEP energy, energy_weight, force_weight, nsims
66 -68.4669991509787792 1 1 594
ITEM: NUMBER OF ATOMS
1
ITEM: BOX BOUNDS xy xz yz pp pp pp
0.0 5.4504820348834748 1.3626205087208687
0.0 3.1468372700531937 1.3626205087208687
0.0 2.225149972945176 0.7867093175132984
ITEM: ATOMS id type x y z fx fy fz
1 2 0.0 0.0 0.0 0.0 0.0 0.0
ITEM: TIMESTEP energy, energy_weight, force_weight, nsims
67 -68.5434147765687528 1 1 594
ITEM: NUMBER OF ATOMS
1
ITEM: BOX BOUNDS xy xz yz pp pp pp
0.0 5.821914378898752 1.4554785947246882
0.0 3.3612838338561471 1.4554785947246882
0.0 2.3767865924123983 0.840320958464037
ITEM: ATOMS id type x y z fx fy fz
1 2 0.0 0.0 0.0 0.0 0.0 0.0
ITEM: TIMESTEP energy, energy_weight, force_weight, nsims
68 -68.542142244046346 1 1 594
ITEM: NUMBER OF ATOMS
1
ITEM: BOX BOUNDS xy xz yz pp pp pp
0.0 5.8276209967701772 1.4569052491925446
0.0 3.3645785512203768 1.4569052491925446
0.0 2.3791163094027384 0.8411446378050942
ITEM: ATOMS id type x y z fx fy fz
1 2 0.0 0.0 0.0 0.0 0.0 0.0
ITEM: TIMESTEP energy, energy_weight, force_weight, nsims
69 -68.5408142006430268 1 1 594
ITEM: NUMBER OF ATOMS
1
ITEM: BOX BOUNDS xy xz yz pp pp pp
0.0 5.833316201405859 1.4583290503514648
0.0 3.3678666791498784 1.4583290503514648
0.0 2.3814413669590975 0.8419666697874696
ITEM: ATOMS id type x y z fx fy fz
1 2 0.0 0.0 0.0 0.0 0.0 0.0
ITEM: TIMESTEP energy, energy_weight, force_weight, nsims
70 -68.5394314626952906 1 1 594
ITEM: NUMBER OF ATOMS
1
ITEM: BOX BOUNDS xy xz yz pp pp pp
0.0 5.839011406041541 1.459752851510385
0.0 3.3711548070793791 1.459752851510385
0.0 2.3837664245154562 0.842788701769845
ITEM: ATOMS id type x y z fx fy fz
1 2 0.0 0.0 0.0 0.0 0.0 0.0
ITEM: TIMESTEP energy, energy_weight, force_weight, nsims
71 -68.537994710483531 1 1 594
ITEM: NUMBER OF ATOMS
1
ITEM: BOX BOUNDS xy xz yz pp pp pp
0.0 5.8447066106772222 1.4611766526693056
0.0 3.3744429350088794 1.4611766526693056
0.0 2.3860914820718149 0.8436107337522198
ITEM: ATOMS id type x y z fx fy fz
1 2 0.0 0.0 0.0 0.0 0.0 0.0
ITEM: TIMESTEP energy, energy_weight, force_weight, nsims
72 -68.5365047603442292 1 1 594
ITEM: NUMBER OF ATOMS
1
ITEM: BOX BOUNDS xy xz yz pp pp pp
0.0 5.8503789888414178 1.4625947472103544
0.0 3.3777178840689235 1.4625947472103544
0.0 2.3884072207602123 0.8444294710172308
ITEM: ATOMS id type x y z fx fy fz
1 2 0.0 0.0 0.0 0.0 0.0 0.0
ITEM: TIMESTEP energy, energy_weight, force_weight, nsims
73 -68.5349625646699678 1 1 594
ITEM: NUMBER OF ATOMS
1
ITEM: BOX BOUNDS xy xz yz pp pp pp
0.0 5.8560627802413574 1.4640156950603394
0.0 3.3809994225636961 1.4640156950603394
0.0 2.390727618882591 0.845249855640924
ITEM: ATOMS id type x y z fx fy fz
1 2 0.0 0.0 0.0 0.0 0.0 0.0
ITEM: TIMESTEP energy, energy_weight, force_weight, nsims
74 -68.5333689397971996 1 1 594
ITEM: NUMBER OF ATOMS
1
ITEM: BOX BOUNDS xy xz yz pp pp pp
0.0 5.861735158405553 1.465433789601388
0.0 3.3842743716237398 1.465433789601388
0.0 2.393043357570988 0.8460685929059352
ITEM: ATOMS id type x y z fx fy fz
1 2 0.0 0.0 0.0 0.0 0.0 0.0
ITEM: TIMESTEP energy, energy_weight, force_weight, nsims
75 -68.5317244299502732 1 1 594
ITEM: NUMBER OF ATOMS
1
ITEM: BOX BOUNDS xy xz yz pp pp pp
0.0 5.8673961233340056 1.4668490308335012
0.0 3.3875427312490549 1.4668490308335012
0.0 2.395354436825405 0.8468856828122638
ITEM: ATOMS id type x y z fx fy fz
1 2 0.0 0.0 0.0 0.0 0.0 0.0
ITEM: TIMESTEP energy, energy_weight, force_weight, nsims
76 -68.5300298514656704 1 1 594
ITEM: NUMBER OF ATOMS
1
ITEM: BOX BOUNDS xy xz yz pp pp pp
0.0 5.8730570882624598 1.4682642720656148
0.0 3.3908110908743714 1.4682642720656148
0.0 2.3976655160798224 0.8477027727185928
ITEM: ATOMS id type x y z fx fy fz
1 2 0.0 0.0 0.0 0.0 0.0 0.0
ITEM: TIMESTEP energy, energy_weight, force_weight, nsims
77 -68.4714280485164012 1 1 594
ITEM: NUMBER OF ATOMS
1
ITEM: BOX BOUNDS xy xz yz pp pp pp
0.0 5.4565652895344138 1.3641413223836032
0.0 3.1503494387634623 1.3641413223836032
0.0 2.2276334512568781 0.7875873596908656
ITEM: ATOMS id type x y z fx fy fz
1 2 0.0 0.0 0.0 0.0 0.0 0.0
ITEM: TIMESTEP energy, energy_weight, force_weight, nsims
78 -68.5282861567359448 1 1 594
ITEM: NUMBER OF ATOMS
1
ITEM: BOX BOUNDS xy xz yz pp pp pp
0.0 5.8787180531909106 1.4696795132977276
0.0 3.3940794504996852 1.4696795132977276
0.0 2.399976595334238 0.8485198626249212
ITEM: ATOMS id type x y z fx fy fz
1 2 0.0 0.0 0.0 0.0 0.0 0.0
ITEM: TIMESTEP energy, energy_weight, force_weight, nsims
79 -68.5264938899854316 1 1 594
ITEM: NUMBER OF ATOMS
1
ITEM: BOX BOUNDS xy xz yz pp pp pp
0.0 5.8843676048836216 1.4710919012209054
0.0 3.3973412206902722 1.4710919012209054
0.0 2.4022830151546746 0.8493353051725682
ITEM: ATOMS id type x y z fx fy fz
1 2 0.0 0.0 0.0 0.0 0.0 0.0
ITEM: TIMESTEP energy, energy_weight, force_weight, nsims
80 -68.5246540036066706 1 1 594
ITEM: NUMBER OF ATOMS
1
ITEM: BOX BOUNDS xy xz yz pp pp pp
0.0 5.8900057433405886 1.4725014358351472
0.0 3.4005964014461308 1.4725014358351472
0.0 2.4045847755411298 0.8501491003615328
ITEM: ATOMS id type x y z fx fy fz
1 2 0.0 0.0 0.0 0.0 0.0 0.0
ITEM: TIMESTEP energy, energy_weight, force_weight, nsims
81 -68.522767041824011 1 1 594
ITEM: NUMBER OF ATOMS
1
ITEM: BOX BOUNDS xy xz yz pp pp pp
0.0 5.8956438817975566 1.4739109704493892
0.0 3.4038515822019893 1.4739109704493892
0.0 2.4068865359275855 0.8509628955504974
ITEM: ATOMS id type x y z fx fy fz
1 2 0.0 0.0 0.0 0.0 0.0 0.0
ITEM: TIMESTEP energy, energy_weight, force_weight, nsims
82 -68.5208338209739338 1 1 594
ITEM: NUMBER OF ATOMS
1
ITEM: BOX BOUNDS xy xz yz pp pp pp
0.0 5.9012820202545236 1.4753205050636312
0.0 3.4071067629578478 1.4753205050636312
0.0 2.4091882963140412 0.8517766907394618
ITEM: ATOMS id type x y z fx fy fz
1 2 0.0 0.0 0.0 0.0 0.0 0.0
ITEM: TIMESTEP energy, energy_weight, force_weight, nsims
83 -68.518855021336833 1 1 594
ITEM: NUMBER OF ATOMS
1
ITEM: BOX BOUNDS xy xz yz pp pp pp
0.0 5.9069087454757492 1.4767271863689374
0.0 3.4103553542789786 1.4767271863689374
0.0 2.4114853972665165 0.8525888385697448
ITEM: ATOMS id type x y z fx fy fz
1 2 0.0 0.0 0.0 0.0 0.0 0.0
ITEM: TIMESTEP energy, energy_weight, force_weight, nsims
84 -68.5168313231931024 1 1 594
ITEM: NUMBER OF ATOMS
1
ITEM: BOX BOUNDS xy xz yz pp pp pp
0.0 5.912535470696973 1.4781338676742436
0.0 3.4136039456001082 1.4781338676742436
0.0 2.4137824982189908 0.853400986400027
ITEM: ATOMS id type x y z fx fy fz
1 2 0.0 0.0 0.0 0.0 0.0 0.0
ITEM: TIMESTEP energy, energy_weight, force_weight, nsims
85 -68.514763406823164 1 1 594
ITEM: NUMBER OF ATOMS
1
ITEM: BOX BOUNDS xy xz yz pp pp pp
0.0 5.9181507826824556 1.479537695670614
0.0 3.4168459474865101 1.479537695670614
0.0 2.4160749397374852 0.8542114868716278
ITEM: ATOMS id type x y z fx fy fz
1 2 0.0 0.0 0.0 0.0 0.0 0.0
ITEM: TIMESTEP energy, energy_weight, force_weight, nsims
86 -68.512652088563499 1 1 594
ITEM: NUMBER OF ATOMS
1
ITEM: BOX BOUNDS xy xz yz pp pp pp
0.0 5.9237660946679372 1.4809415236669846
0.0 3.4200879493729115 1.4809415236669846
0.0 2.4183673812559792 0.8550219873432278
ITEM: ATOMS id type x y z fx fy fz
1 2 0.0 0.0 0.0 0.0 0.0 0.0
ITEM: TIMESTEP energy, energy_weight, force_weight, nsims
87 -68.5104980486945152 1 1 594
ITEM: NUMBER OF ATOMS
1
ITEM: BOX BOUNDS xy xz yz pp pp pp
0.0 5.9293699934176756 1.482342498354419
0.0 3.4233233618245844 1.482342498354419
0.0 2.4206551633404927 0.8558308404561462
ITEM: ATOMS id type x y z fx fy fz
1 2 0.0 0.0 0.0 0.0 0.0 0.0
ITEM: TIMESTEP energy, energy_weight, force_weight, nsims
88 -68.4757227947584682 1 1 594
ITEM: NUMBER OF ATOMS
1
ITEM: BOX BOUNDS xy xz yz pp pp pp
0.0 5.4626599574210958 1.3656649893552739
0.0 3.1538681969084586 1.3656649893552739
0.0 2.2301215890025605 0.7884670492271146
ITEM: ATOMS id type x y z fx fy fz
1 2 0.0 0.0 0.0 0.0 0.0 0.0