ITEM: TIMESTEP energy, energy_weight, force_weight, nsims
0 -3682.6567591976800632 1 1 298
ITEM: NUMBER OF ATOMS
54
ITEM: BOX BOUNDS xy xz yz pp pp pp
-1.1045197501726731 12.2012632782485717 3.8981018173642736
-0.6636633924070212 7.3312598055648693 -1.1045197501726731
0.0 31.6223911479027926 -0.6636633924070212
ITEM: ATOMS id type x y z fx fy fz
1 2 0.9298825911669736 0.5154382295523796 9.6582846275437842 0.1316356555503426 0.2047303512975941 0.1614789774920541
2 2 3.903998795462483 0.688431396263956 10.3107652352940367 0.3691794684880306 -0.4519661990405302 -2.8346337595149792
3 2 6.4980149286436326 0.5429786652659112 10.0277005631727008 0.554203847915574 0.2589554554066887 -0.0678540138331128
4 2 2.3664153025989294 3.0366106273377036 9.8290423775033436 -0.0803025295686204 0.1596851180152869 -0.2444210027448499
5 2 5.1089242705543496 2.9501063795291098 10.0973109328065807 -0.1153345971174178 0.5509963952894208 -0.4004695508247211
6 2 7.9103540683828246 3.1527421179319131 10.1480458971642715 -0.2608421317490303 -0.9903433572682896 -1.5840812763786682
7 2 3.5477194932845526 5.4838103853371436 10.4397466443081033 1.1390783991396698 -0.4259864755447669 -1.1956748327534543
8 2 6.4180206950167218 5.5012618233937128 9.9228154162133358 -0.5468183507864156 0.0179609633751649 -0.5870409637153156
9 2 9.2552230351715554 5.4717059977513198 9.9574261233247156 -0.2704326079340515 0.0677221161820333 -0.5654562859262828
10 2 -0.6319262282923068 1.3274369672177897 12.4234034298204694 0.2068008615980679 -0.0166036774101578 -0.425009970128003
11 2 2.2706791111631741 1.3805046040315463 11.8616095154041742 -1.767746055847326 0.1476238105887962 2.0591637600454251
12 2 4.9438995353299946 1.3846011812635035 12.582685414032456 0.899879052137068 0.3686223101841529 -0.8031651637606434
13 2 0.8283540414674162 3.9077443208816022 12.1840092798743882 0.5305967394766556 -0.3740959341487361 0.4351164669479492
14 2 3.4852683744294164 3.7314423737343412 12.5964443164209108 0.659058880977731 0.7089668438406744 -1.8207205748202596
15 2 6.4381538916774863 3.8311128942779106 12.1282210574112561 -0.923666394988085 0.0555546221475586 0.9339690670668492
16 2 2.2124068652512157 6.2164250184508809 12.3847165964901276 -0.5892575127405716 0.5917638252215126 0.6901936686141252
17 2 4.9650966795447494 6.2479662330142345 12.7456387578567156 -1.0573666472989896 -0.1531367724493153 -2.7676166401346222
18 2 7.7188273947122036 6.2673065818273104 12.0120751769641263 -0.1208056499776914 -0.4222642878358435 1.8846922211459646
19 2 -0.6181424682345206 -0.3030570669194368 15.1182383055318272 -2.1239093087683023 -1.3510515512772423 -3.2728712899842809
20 2 2.1712714623603677 -0.2439019331330504 14.6023284806711402 2.2439456843365786 0.6002109313200806 1.1131961204972381
21 2 5.1249251474810906 -0.2354739703835821 14.5470683521401796 -0.9054966579429852 -0.598268204903791 0.6561885001265588
22 2 0.8677388099142194 2.1402011981954523 14.3099731500305474 -0.0190873641731751 0.1104124750272313 0.8160697934006638
23 2 3.5461781722945368 2.2445733161126316 14.5050738166957648 -0.5569233049437762 -1.2053524693745692 1.1200524843594928
24 2 6.3626298439196392 2.1093893031744191 15.0668519199164859 0.5587814420282818 -1.659978990044182 -3.994420089874128
25 2 2.0644470335802598 4.6245563733740358 14.5716768969314768 -0.0300238134642413 0.0811751623712789 0.9665331315889176
26 2 4.9996184890804738 4.6403175935900062 14.6609057980335128 -0.2083828620797289 2.7639371327572372e-04 0.0164476113785687
27 2 7.6698953051950456 4.5242505092575298 14.3047396442955712 0.0504576649643233 0.5190154572247564 1.0478003394944779
28 2 0.7932052952823356 0.4110688744880972 16.6066093896901706 2.1924207539733645 1.8616962642014242 3.9135956261306704
29 2 3.666395429558921 0.517655189544723 17.2557158883049411 -0.4174226413105456 -0.4520816416240286 -1.2246475787759552
30 2 6.2900347828913912 0.4737604333094924 17.4200163459921029 -0.4095193237734456 -0.4406829077781067 -1.9485502246611876
31 2 2.1041965735670791 2.8089529486150236 16.9032274186574974 0.0610971517076374 0.5579517466675926 0.1845021881422754
32 2 4.848170458547811 3.0034183251132376 16.5083870805456706 -1.4138464031604705 0.6912349658594896 3.7759744397477154
33 2 7.600850977525158 2.9389941937190756 16.8031773353046496 1.431813280075547 1.0033909403079204 2.3280408498722039
34 2 3.3585352243608116 5.4470533841215412 17.365723862630265 -0.3173236370001786 -0.9868083459531008 -1.0659032278275296
35 2 6.1642083218199746 5.4448956114877829 17.0432039330736878 0.2844212151509745 -0.3094300896594549 0.2549455611255276
36 2 8.9852115121683394 5.3388230172819622 17.0342737698135203 -0.399539325285529 0.0012896659216661 -0.1003440305510664
37 2 -0.7528431026080324 1.2698529844647335 19.2669568856156275 1.3139140064093615 -0.5163402231906784 -0.9013615508819496
38 2 2.144330519373904 1.3229177405339865 19.2163926821701274 -0.8387980983865806 -0.6891737115345302 -0.4392508026776921
39 2 4.8236590795904616 1.1534127769353351 19.4450763282344177 -0.504984169676295 -0.0848574979634044 -0.3329536372083131
40 2 0.698764597266878 3.7626311012933624 19.3750611919938472 -0.5884589277420278 -0.4466131598680645 -2.8557096157611538
41 2 3.3204328944528885 3.6159795729376812 19.7351390355167844 0.4804740894038658 -0.0413819238620723 -3.3378904042056927
42 2 6.1817270814131398 3.6354108049909422 19.6422324503242472 -2.0073709206131571 1.3969586187241081 -5.8948850075174066
43 2 1.8064074227869056 6.0109372397461573 19.6038270562751188 0.3226975021175516 1.7889496959776846 -1.2771320452674899
44 2 4.6541749434933922 6.019334216043613 19.3861416778520699 0.3853925951535691 0.788611942037345 0.6545985292215384
45 2 7.3219410606188804 6.2024152603646607 19.6934196148753564 -0.1049295950871338 1.7269164051909432 -2.3213017283664641
46 2 -0.9395974407553396 -0.5659048549825388 21.95062589501266 1.4134417113421485 0.7519698489699126 0.0054204021053756
47 2 1.958999591558153 -0.4133289871580497 21.9478715847436732 -0.2026469854755725 -0.1896945332953947 -0.1078701670859566
48 2 4.876012132235939 -0.3679996421844809 22.0523108559878516 -1.0148588368597689 0.1798173789798596 -0.1934218632129372
49 2 0.5426052896844324 2.0648824279008733 21.1617231296112394 0.588379994839725 -0.5538634337049906 2.522989691934578
50 2 3.2509448002667805 1.8951857041043344 21.5077985783338868 0.3860937352987811 -0.3398123150644463 1.6878438472197014
51 2 6.24374120031053 2.0518825316750577 21.1680159854496672 -0.264713957728769 -1.8015414222232336 5.0762124852241932
52 2 1.8115182918334492 4.5046218751700788 21.47868384280401 -0.3762196663084175 -0.8315694386203044 2.9876694875649292
53 2 4.5269893647582604 4.4791733596984918 21.6061979728688166 0.9458858784311436 0.4140156709899721 1.911987835827351
54 2 7.4474048617305933 4.5301894224685456 21.2253663540355078 1.2873781530514443 -0.2735770685046208 5.3599742121197709
ITEM: TIMESTEP energy, energy_weight, force_weight, nsims
1 -3683.2433909761519992 1 1 298
ITEM: NUMBER OF ATOMS
54
ITEM: BOX BOUNDS xy xz yz pp pp pp
-0.4418112213336536 12.351832808180248 4.048671347295949
-0.2592911261004949 7.249191357685489 -0.4418112213336536
0.0 31.6444858605502048 -0.2592911261004949
ITEM: ATOMS id type x y z fx fy fz
1 2 1.3016126532465773 0.7843074702421502 10.1232640581537616 -0.3833421394667096 -0.5878459764746332 -0.4670508680246108
2 2 4.0237663779732227 0.6145147665389296 10.1249412159043679 -0.1776640791206185 0.2249582573424818 -0.0279278492311029
3 2 6.7043271048788986 0.6329473031529546 9.5416510658311894 0.6007207813046628 0.314993445164441 0.3253328840348317
4 2 2.5870747722018726 3.0424199185757814 10.0054832817807924 0.4450167612022701 0.5226551124853436 -0.0513364684173246
5 2 5.3887824194048326 3.0323444668666411 10.1672720446400273 -0.778913736581754 -0.3387306514814221 -0.8640771959579938
6 2 8.1126814524694275 3.1433500689608822 10.1921098015919736 -0.2490109381582436 -0.3403069955336021 -1.7202374475260472
7 2 4.016435363839939 5.6066246726806482 10.3970837943051002 0.3492716649296808 -0.5993835499532702 -2.2975910044238717
8 2 6.6039952856359774 5.4635637712820468 9.5996427506192354 0.4005963062671815 0.2469113743790719 0.4129658891003862
9 2 9.4841633065937626 5.6225477163563974 10.0464502331758592 -0.6146271131836806 -0.8837841962697686 -1.2603198512978284
10 2 -0.1264642118911124 1.5179231615668288 12.3179072504890837 -0.7900772143833528 -0.579051257073415 -0.3257026088345438
11 2 2.6104608951384548 1.4226254465204576 12.4582030785518364 -0.5435594760740716 -0.4084641425648098 -1.5436290638349262
12 2 5.226614478285617 1.4318190667589304 12.7626072102873956 1.4193251693336724 -0.0104818780491393 -4.8942137813481184
13 2 1.1151092325750509 3.9482286446058862 12.1340274720505992 0.8823428351938394 0.2334704123800812 1.1291858181982772
14 2 3.977554931074259 3.9829139719802198 12.4674590906660434 -0.784882555236355 0.54606501722372 -0.8837911382514042
15 2 6.5777146480142594 3.8241929325276832 12.1928450779196034 0.5471111995672724 0.8810511123887256 1.0520645159918529
16 2 2.4291574102029388 6.4234923481361985 12.025148289550204 -0.1387321605551084 0.7776099295863854 2.2192337723758504
17 2 5.1864415384063882 6.3755537957491111 12.5200996928950694 0.6665145692545398 0.2190046082033072 0.5501949820761366
18 2 8.0126075307367017 6.3170068079457531 12.4411372073272357 -0.6012779396085404 0.2021818727059764 -1.0767903119158526
19 2 -0.1149532778706823 -0.1479002365200312 15.0744584138016116 -0.8285363068663382 1.947093694069832 -6.2375697603164726
20 2 2.682981518593227 -0.0655312823912925 15.1170107539382954 -1.0697632267274444 -0.4530110958319278 -5.0623411203637856
21 2 5.4752223894024308 -0.0862834252602627 14.5026552120958138 -0.004593792069858 -1.5526410415503006 1.9288805053619016
22 2 1.1514613962658276 2.263157469616544 14.3743178352397685 0.0681296362150957 0.454900086168148 1.5999239069132022
23 2 3.8740310937501322 2.4006612854551355 14.268454372241882 -1.0783681986306184 0.7353836550690596 4.7548213612063198
24 2 6.7312802469664988 2.3024151561744657 14.5102467242537596 0.5994465420088538 0.5848709516780626 0.8823191810341916
25 2 2.3937075936483887 4.6986622244126998 14.8479345262174488 -0.8614978641146618 -0.6300727652128208 -1.4431204826080493
26 2 5.3300353739173368 4.806126951591823 14.7770920157214364 0.7820743951094736 -0.5134510732780464 -2.3184406034908065
27 2 8.0880968083931588 4.7417758881430636 14.3515464632145165 -0.1959999095041146 -0.489811054703966 1.4704531211914934
28 2 1.060472199732327 0.6024302244015876 16.8590017271785514 1.1150434589436438 1.8326286444299016 3.4705509019338186
29 2 3.867718095914976 0.7010756319789354 16.817879717802768 2.2566441114109739 1.7109385345697278 2.650018699893515
30 2 6.7518795161948378 0.7716161835351834 16.864666090147587 -1.6015686423400156 -0.7565584988311514 1.3213532396185892
31 2 2.5090660566100836 3.1708081739304945 17.3413048295249546 -0.5274741332927174 -0.176393953591705 -2.0853962230948162
32 2 5.3239336463522342 3.1629534213299002 16.7171743060001532 -0.9852011486492064 -0.6900311748217622 0.8209356083064712
33 2 7.8556484615048118 3.007580585225476 17.0990378102251661 1.868659843113387 0.4389211871052088 -0.6732750309260486
34 2 3.8584021068962162 5.4963920396093968 16.5153679263216624 -0.4765744954975838 -2.1395634773569463 6.027673803350579
35 2 6.5940299002963938 5.5841364643637554 16.8958548954117448 0.0962040383918424 -1.1728223434293868 1.3712164652665464
36 2 9.2735097201352392 5.477563591049445 17.3688608478123214 1.4072574341464079 -0.076412191637853 -2.2231310522882537
37 2 -0.2649663672256936 1.3468162115970524 19.7659907762721332 -1.8279116964636168 -0.6599657094677064 -4.6647956864703062
38 2 2.5296661108508598 1.5102917032171058 19.2563468381422176 -0.1473263338201822 -0.5411367244831906 0.3414786477674602
39 2 5.2709088068781398 1.5398763355381628 19.5214105450559394 0.0087816067692394 -0.183556535977226 -0.647503823989789
40 2 0.9841682874582044 3.946006986246382 19.4167400791749998 0.387485216951105 -0.5232174129978402 0.3125349552236574
41 2 3.815606151978193 3.879627154198921 19.3076203985820669 0.583201533649877 0.3920810659044107 0.4676021127885766
42 2 6.7047398275998146 3.939901787798707 19.1033679001465586 -1.135127640257628 -0.0762736091155687 0.9380059579432604
43 2 2.3950792140681556 6.2112407796863423 19.703037236101153 0.0466745420832637 0.1940615539651512 -0.8219730488953714
44 2 5.2174850852993586 6.3170656914194252 19.5879652277178522 -0.9000379463833976 -0.2218801312630986 -2.5324819519349746
45 2 7.881691441037372 6.3914367793809639 19.0665843497822571 -0.3396279668854521 0.729722083379449 1.918870682063994
46 2 -0.2705801100040984 -0.0733575041301305 21.8414102036792528 0.1478431257864001 -1.2679840561341411 1.2142693162304905
47 2 2.4332313393605438 -0.2325672928846168 21.50178892362948 1.1208659817630316 0.7483577045254376 1.4826758939686232
48 2 5.3507226737550307 -0.0723618265646012 21.7952725432945692 -0.8541306218261012 -0.7335597136718708 0.3665515427732481
49 2 0.999106970216202 2.1499165070100905 21.3815462062565587 2.52087495863998 1.803143991539371 3.3578360029973933
50 2 3.9173953467323042 2.2324600491043536 22.0280145723503296 -0.5805232142906276 -0.2268621600836973 -0.3144301162102205
51 2 6.6187205742383234 2.1622643315899626 21.7400845599537682 -0.073938789292074 1.3260506471921216 0.8068572695491452
52 2 2.4376808443875953 4.5490591579109988 22.0271696645778512 -0.3489351073755619 0.1594868858730212 -0.2561012725126665
53 2 5.1224366491048361 4.5686433861661958 21.4416042759712973 0.4937561571565268 -0.1506260890910479 1.0462144823563526
54 2 7.928508428172246 4.7632295626063464 21.5365630491416412 0.0853825174634128 -0.2426618531762615 0.4532054713177292
ITEM: TIMESTEP energy, energy_weight, force_weight, nsims
2 -3682.4914945976240412 1 1 298
ITEM: NUMBER OF ATOMS
54
ITEM: BOX BOUNDS xy xz yz pp pp pp
-0.4418071514314315 12.5810675595770682 4.1238096837839695
-0.2592910692139407 7.3837273900714253 -0.4418071514314315
0.0 31.6445556228865392 -0.2592910692139407
ITEM: ATOMS id type x y z fx fy fz
1 2 1.369564669299733 0.8428533219955116 10.09831249225312 -1.73250418618687 -1.1142428170616523 -2.1120752869627748
2 2 4.1704217596949969 0.74375028390382 10.2787339261370097 0.3476346428157957 -1.5971196034427848 -2.3844922732029308
3 2 6.8123525359911952 0.6997410237898354 10.3620920145588151 1.578411734265698 -1.0049027496419309 -2.3185174795096617
4 2 2.7273576852051278 3.3003930103560961 10.0180618991934818 -0.4562488874889336 0.3298405441103201 -0.6349560636279332
5 2 5.3197439822621355 3.1263976216560945 10.2187516709538286 0.6700686067416192 1.1602529857913306 -1.3167008263704736
6 2 8.3362380450917595 3.2281447999572866 10.4096822617600769 -0.3489474486762476 0.357235660528486 -1.6430544388161932
7 2 4.1071741001002806 5.6585231836047898 9.5869333089317142 -0.7446938808843408 0.2809751640448959 0.6356597748774548
8 2 6.6764440025027518 5.606781595075785 9.7951987873081806 0.9479059950871504 0.0109364492910662 0.680946434854428
9 2 9.6841585214956646 5.5871588516340802 10.2681709734700899 -0.1377975641385901 0.3691488723467471 -0.0908882802318652
10 2 -0.1050101030548669 1.5984637688866568 12.32279184540843 0.2135294415761384 -0.8255090886522838 1.4603581943409402
11 2 2.6479439801256498 1.5093664551148288 11.8664710244152794 0.0849837391850029 0.8416260560166454 4.6457510026286696
12 2 5.615951946628802 1.6459143245521804 12.1297980295755696 -0.9844861245407228 -0.1710599405911299 3.8852998518728722
13 2 1.1731395615371425 3.918971957928298 12.5850429356775404 0.7718208311230216 -0.1041245823278164 -1.473331986686887
14 2 3.8958277649242512 3.9101478691511038 12.4276808894760489 0.2889144770423295 0.5313994382420946 -0.2376875376685914
15 2 6.7904605151896878 3.945403636322352 12.4800431356652394 -0.9471727161380692 0.2498025811751515 -1.0119534889899868
16 2 2.5382223858455508 6.561759069714813 12.5969729331473684 -0.3206372762343159 -0.249395832473382 -0.4709571468020974
17 2 5.3013472045712709 6.4490499695363566 12.8009220941368724 0.701789091939727 0.0306015406025953 -2.1476542283982116
18 2 8.0920937395921477 6.4724118093495876 12.5412500351510286 0.1758643061039394 0.8366741091164684 -1.0032523577856365
19 2 -0.1672739274847004 -0.1552748311412766 14.7176296637595474 -0.6686979510342026 0.551830718637867 0.7275392158206482
20 2 2.71777848670455 -0.0961475858916416 14.9368947896705286 -1.2391349802289291 -0.4528169774565574 -2.2394598786477218
21 2 5.3243618128458588 -0.1174942103577051 15.12120850389603 1.3830510012929356 -1.152897313472163 -3.8361277390633202
22 2 1.2034787707478063 2.4321798028646433 14.9072090320407006 0.4873847035670516 -1.1823207740801265 -2.7859655831500968
23 2 4.0497041923204353 2.2550864309645711 14.5944975333753338 0.1289321393688596 0.0707272228990255 -0.571143311548558
24 2 6.8874080033195836 2.4206604559676381 14.9601946759756554 -3.5214086307287068 -2.322803253283237 -5.7511461355403278
25 2 2.4880429871677578 4.7797318984610602 14.5676534568404358 0.240757436214184 0.6262891281108994 0.7997887895813532
26 2 5.2774650336003291 4.7808135730044904 14.729771679752048 0.2054883128480469 -0.3116011301384319 0.389897427014317
27 2 8.1314198941810485 4.751227577814401 14.2901275395721594 0.0818500772525335 0.6464905517813988 3.438367875070425
28 2 1.156615784081309 0.6959872363351056 16.864358343749423 -0.4579946673151124 -0.1456147496813204 1.0650362514543523
29 2 3.9716449928972422 0.5833742144245706 16.8335523688505404 -0.5609272856850254 1.6198638492754208 3.3896577897052969
30 2 6.7738455602515098 0.6371173573589074 16.8995217739575736 1.13426323498876 0.2832511055797022 1.5964698853837636
31 2 2.6718704772258266 3.2138151685795382 16.698487076540939 -0.0730281041456343 -0.2134039716858327 1.8401432109953988
32 2 5.3739700236411228 3.2093915600722762 16.9398116221766308 -0.6205560797214834 -0.1205863347800875 -0.0893942115175905
33 2 8.0702447371081227 3.0856264012897832 16.5125689833453572 2.7603131612329382 2.7099969070056402 6.5583584745946198
34 2 3.8164311242282092 5.5302965555158768 17.0034171789786335 0.4906944861447246 0.518838308137829 0.4652878617995582
35 2 6.814967381028179 5.6261735878942538 16.9524947600702838 -0.2590045634990009 -0.4052921711781282 0.2119538688552512
36 2 9.606785460418804 5.632523078166754 17.1599976046562404 -0.2310065231202475 -0.9671607381508768 0.4601327976589272
37 2 -0.2678836292748027 1.424066143360808 19.4282730227936256 -0.4560028328065104 0.8523761002452698 -0.8547173478295386
38 2 2.4016291840733257 1.4610042647068042 19.0718414060796775 0.374461030960691 0.2943225378470194 0.3748250993309221
39 2 5.2948507844505848 1.5161797445502622 19.0111249972060463 0.3883509077721277 -0.1458824016399437 0.4882560508175554
40 2 0.9413821603214272 3.8703764315623578 19.745718546980168 0.6875207485739258 -0.6212003984614546 -2.9740773446325374
41 2 4.0265493260260659 3.9930314294810474 19.675945466287267 -1.989460350882459 0.5500931663454788 -4.6064462739382766
42 2 6.6227161260022546 3.9652006044538322 19.0370545460834393 1.0689366166919268 -0.2665335282486317 0.7541010373320918
43 2 2.5045041563013074 6.455092987674414 19.6788599298601384 -1.609536494595285 -1.188548245828267 -4.2569036146143695
44 2 5.1560955756720608 6.3204650966493965 19.3786511951213712 1.0633946013527098 0.6595813293734298 -1.245390991234906
45 2 8.1117556387795808 6.4616317985865868 19.3666452507180509 -0.488942278557772 -0.063522474402828 -0.9257793285096664
46 2 -0.3413717898217261 -0.23369525525534 21.3799573197462714 1.545403382918941 0.9376413753521676 3.687071823374109
47 2 2.5550147655967056 -0.1745607154558707 21.7761250049558762 -0.2404877273721132 0.1736107331766262 -0.3495030643175395
48 2 5.2919712416634042 -0.2088450511345826 21.4573314226997952 -0.2607958518714586 0.6498057336781218 1.5077732144653516
49 2 1.0984118325790455 2.253988295317591 21.8384268060662166 -0.0526670148975124 -0.3768907245332078 0.195234748861595
50 2 4.0164362817398862 2.302904914996867 21.194099351206372 -0.4718153814206224 -2.0748112437628645 2.4343292735869304
51 2 6.6774932385155764 2.2261838214263041 21.8691030382870402 0.2785446991410862 0.0129956467325781 -0.3666281616816724
52 2 2.3902370976559526 4.6996491607027898 21.5924441818428328 0.32460757550911 0.0441633445041344 1.7316582928690308
53 2 5.3155043652082643 4.700712256830947 21.4334144675600129 1.24973847151191 0.5827112240580476 2.5407681069037654
54 2 7.989675526101796 4.7661225592350762 21.4335853481603813 -0.8006614223840118 0.2951581467476203 1.7335387985610292
ITEM: TIMESTEP energy, energy_weight, force_weight, nsims
3 -3686.0835665579278662 1 1 298
ITEM: NUMBER OF ATOMS
54
ITEM: BOX BOUNDS xy xz yz pp pp pp
-0.3681782643647768 12.598108934196791 4.1408510584036922
-0.2155078451909598 7.3741791459296558 -0.3681782643647768
0.0 31.6458242115679092 -0.2155078451909598
ITEM: ATOMS id type x y z fx fy fz
1 2 1.3859266445386232 0.7127984118995746 9.7821230011807074 -0.5624007855648236 0.2170582822409842 -0.0489903357348679
2 2 4.0246810538303546 0.7362935495032308 9.6897171944829276 0.5858582557329266 -0.114873855225148 0.3314855366475648
3 2 6.9420212845303552 0.6803814716247418 9.8785035233994556 -0.1713448189486271 0.1125048397143363 0.2261651337053806
4 2 2.719156760447235 3.1786024042050154 10.4374383997890128 0.1030236354624706 2.0146378898336454 -2.4888132878999958
5 2 5.4971698512657428 3.2734466131074696 9.8203638151579646 -0.224227806608141 -0.5038927358968944 0.2127167155038922
6 2 8.2752714733117508 3.176043490881868 10.2586711388178635 0.1989314826378539 0.62993238291752 -1.2540198744081583
7 2 4.1652022081893829 5.7437507518257052 9.8252594241634964 -0.8873760289901982 -0.2969754032736044 0.4035800728184046
8 2 6.7284385107090384 5.6266133265881608 10.1695058645193512 0.9997893373911144 0.3080576341790216 -0.1028613987805386
9 2 9.7156854305122256 5.602543402380599 9.6845874063782312 -0.1054371310778374 -0.0409553776571194 0.6382933570217182
10 2 -0.1470081567166858 1.571523764305884 12.1569174229069752 -0.2082663910545067 -0.903792787117052 1.3107893433419755
11 2 2.5682817127342058 1.5626235528237766 12.0467298275847163 0.1690976737820878 -1.8712587153494714 2.7596678140512432
12 2 5.3672636708324158 1.5587513994813972 12.2567979732835273 0.0687467012493856 -0.2715078437563018 -0.1991700811177794
13 2 1.1885701403869908 4.0742023412370161 12.5690251687021206 0.0178879440127739 -0.2687040545067467 0.0560644721321407
14 2 4.0922127871797827 4.0861038013545308 12.5643289283891236 -0.4579345034742692 -0.2037852133534066 -0.0230638340983121
15 2 6.7235872964608544 3.980694140166476 12.3399916805533181 0.3841666926187796 -0.1025713782144223 0.426552375603297
16 2 2.5749232562125016 6.4053777026545307 12.6751874151846664 0.4194309308867286 0.240359172156636 -1.2049061256664329
17 2 5.4114635792343231 6.3945951255932912 12.6456333799534822 -0.3006047741169533 0.456443520085166 -0.5601562115025936
18 2 8.1250379518099667 6.3816636166967662 12.6243230819294112 0.2874160374507286 0.1992353871672417 -0.902397191697833
19 2 -0.0812283970976772 -0.1581991529074844 14.9038920540206536 -1.1661143322857923 0.209061119396586 -2.0888335324462424
20 2 2.6544066607163028 -0.169059472087135 14.8049735367001354 -0.6773805702875246 -0.2816387660671887 -0.9926131281527528
21 2 5.4973048831111822 -0.0765630819684857 14.6383456138965436 0.5960904795536092 0.0254058530138736 -0.4304751094483647
22 2 1.0954198681090577 2.3077320655174418 15.0344025976515798 0.4058189904511534 0.116427316448973 -2.5476152147905054
23 2 4.1194947582011698 2.3509238541977058 14.7689257783407406 -0.8513111488402578 0.3072063415421324 -2.0511467996978432
24 2 6.7838779830714096 2.3888601808447732 14.6035953343298246 0.7313501066282508 -0.4146522764170146 -0.4084875396140266
25 2 2.6331832244629458 4.7775277288071116 15.0068707305875169 -0.0445217564448845 0.2361129933894281 -2.6148971579147454
26 2 5.358732106806424 4.771797461569002 15.0927100287613953 0.8217830442868962 1.8368557970252192 -3.582764692640315
27 2 8.2337962316241491 4.760527348645005 14.8772462700345116 -0.6911799442272654 0.0666029144760898 -1.2810637779776411
28 2 1.0453607699986882 0.6042338183015344 16.8682306419756216 1.5678910325414844 0.7586166678309396 2.1020945171435654
29 2 4.1229730884477638 0.6703683679761082 16.5265981466996408 -0.0435462794698444 0.2175218523479946 3.376129667270213
30 2 6.9557792613963718 0.7787871782933252 17.17988821255841 -0.8771443193903772 0.1278119092211923 -0.8026416869232208
31 2 2.6931621093020054 3.1769163975968446 16.805483301728927 -0.1118155266489482 -0.4527992368368216 1.8926582736282172
32 2 5.4927998102103572 3.2575923184451457 16.7317137209093404 0.1301703832043348 -2.3143366067919162 3.377023897349071
33 2 8.2036844911039264 3.2064304117373648 16.9281203642960136 -0.025857853151491 0.0335572821168443 1.6099283308920592
34 2 4.0229687363512596 5.7097736607022488 16.9347723165452884 -1.0951744790603679 -0.4617577355825576 1.5104343074257274
35 2 6.6334535532311696 5.5744482866053398 17.459786033962466 -0.0183900806844274 -0.1633034331101048 -5.1455412844892594
36 2 9.5859142350584446 5.7037345516322572 16.7372106005748904 0.0130527252482499 0.1390517488207845 1.816403690684539
37 2 -0.3129369448719347 1.480828418639599 19.4889194469906216 0.6654290490150514 1.2310072052856065 -1.4024029320995624
38 2 2.5972457227807766 1.526855253301041 18.8553225775387112 0.1898531704312934 -0.3223663438824826 0.9359860983976848
39 2 5.542012645375488 1.5637828589078172 19.2894463232378435 -1.1579101955444764 -0.2906476584573915 0.271394458056251
40 2 1.127680304629703 3.985586516142459 19.5329672697106994 -1.3826666211986592 -0.985393724361991 -2.796997934631909
41 2 4.0082583519084158 3.993060359362608 19.0848687280397407 -0.2421692295905534 -0.761363635675254 0.185721662916291
42 2 6.6873654415771978 3.985477400384839 19.219588166290805 0.6420448553197704 -1.2104360568153949 1.7569625872626774
43 2 2.3994541311293745 6.3164002604244276 19.0849699946772162 0.0831963074690095 0.4088752621439055 0.3308376183615603
44 2 5.256944429669991 6.3240937650520852 19.1835055975247748 -0.664982191086053 1.3533061526462795 1.9016615095889388
45 2 8.1410088892832935 6.3376156836255389 18.9515765164606158 1.7131365716439552 1.4632555717873624 2.5425192860489942
46 2 -0.2424107260885648 -0.0826787098466751 21.3029751803472749 -0.0529395519543238 -0.9716660842324864 1.6708197942549334
47 2 2.5490064167449394 -0.1929857353246798 21.5711418947160994 -0.0964166687182416 -0.1858697585245206 -0.318510972970325
48 2 5.4430406420879258 -0.1488425641303742 21.7579535242018274 0.0084090537547868 0.2212072732652915 -0.3728080680000867
49 2 1.1992786467557028 2.3791174402874753 21.5842717471814788 -0.629516121129805 -0.48211625372637 0.4916373100950334
50 2 3.7774969057204256 2.2080877169514284 21.5296447254274704 0.899732756301855 0.1894060553918642 -0.2273038758040766
51 2 6.7069966699176344 2.4131972344502302 21.9221162372993348 0.0924219439525068 -0.29496402837225 -0.3502677107391972
52 2 2.5288241661404318 4.7305584983366824 21.2223226327616708 1.3273639672734357 0.8389742190317844 2.2841487568727264
53 2 5.2550503892218661 4.7005015758227602 21.7106525107528014 0.0636541149434766 0.2145226591709142 -0.3421941860968056
54 2 8.2036405213559274 4.8275054566667324 21.6524147004562516 -0.4391178765848888 -0.0013865965541358 0.1192668440484308
ITEM: TIMESTEP energy, energy_weight, force_weight, nsims
4 -3683.8438385693352174 1 1 298
ITEM: NUMBER OF ATOMS
54
ITEM: BOX BOUNDS xy xz yz pp pp pp
-0.2945409200402463 12.6151503088165136 4.1578924330234157
-0.1719529671306253 7.3645886154985068 -0.2945409200402463
0.0 31.6468644542866322 -0.1719529671306253
ITEM: ATOMS id type x y z fx fy fz
1 2 1.2244828545144504 0.7778175026163254 10.2523213732971446 0.717275110306527 -0.5123007612099576 -1.7150379032808612
2 2 3.9809569365661054 0.6885272376875398 10.3073109649729098 0.3569404977537506 0.6612222081437794 -1.849998253813872
3 2 6.9175396435257106 0.7634567925107188 9.5450266114896182 -0.0878286661035107 -0.0287320906591276 0.550299111800673
4 2 2.643141642677024 3.3175425944088617 10.2498244356916999 2.0552240569119147 -1.3250466309592457 -4.3187795538173672
5 2 5.6206637200735754 3.2773058595706588 9.9594169840269356 -0.2081494058084225 -0.5728335555216506 -0.4436412203966653
6 2 8.3968648306961598 3.2244133498501162 9.7357812516742754 -0.2662075122221817 -0.3934931163912109 -0.2201749748850106
7 2 4.2271989081409087 5.7783318182630846 9.6579964235320884 -0.4503332906935402 -0.3272583840522474 0.3433558110238566
8 2 6.9608997788165166 5.5821951569116158 9.9454765402348234 -0.2489330336976645 0.4293934458653404 -0.078745725909193
9 2 9.6311452999904486 5.6547871376308648 9.7669755659668684 0.5439489983769672 0.487052002669397 0.0137561793873405
10 2 -0.0505698326534983 1.510505520311662 12.1510066530965233 -1.5443569434649572 0.6620922698421282 1.1092654162288109
11 2 2.628486729409731 1.6316649168603548 12.3130892340856004 -0.1506515430237124 -0.3265729276433237 0.5541645100196378
12 2 5.5239669941617926 1.5713633552132816 12.2822430353020043 1.1042900722794169 -0.1197041888914838 -0.6053145733745208
13 2 1.323925763795794 3.9288979313018126 11.8774922976774598 -2.1876541836939056 1.7305275211936944 3.972266169590963
14 2 4.2223155663354932 4.0764984165076932 11.9909146598816232 0.0745309146145614 0.5445521794479856 1.3974175608433612
15 2 7.0494368654659452 4.1141279040708936 12.3016868688227153 -0.4498033860953437 -1.1025211525144525 -1.0675253375364191
16 2 2.5754762776057256 6.5123371293975802 12.7046179117411402 -0.4264549307499653 -0.912992712557454 -2.0664225017321232
17 2 5.3394345291724816 6.4525555730010212 12.6429919725893072 0.2036846831749035 0.9572738136389656 -3.4696672133826292
18 2 8.1808801631952317 6.4868565974459012 12.2223260268307037 0.5597427779296196 -0.3457124852339824 0.7033068148136494