ITEM: TIMESTEP energy, energy_weight, force_weight, nsims
0 -1636.126015180020432 1 1 600
ITEM: NUMBER OF ATOMS
24
ITEM: BOX BOUNDS xy xz yz pp pp pp
-1.1036431319168987 5.5354586131644998 -0.1931819701408279
-0.942810381911404 5.5320875188690826 -0.9104611617760708
0.0 26.0551545965277072 -0.942810381911404
ITEM: ATOMS id type x y z fx fy fz
1 2 1.1147602643356871 1.1566482973837944 7.7724037360408752 -0.3625074528047701 0.0706585744139608 0.2361988682733668
2 2 3.806872287034497 1.0484191483296432 8.2884729721033814 1.0628412997052965 0.2525104682339607 -1.3468300551114061
3 2 0.884994841199822 3.9214738069141602 8.0149850418809283 -0.6595653885267106 -0.5156084869041828 -0.5798508705136824
4 2 3.659486706382893 3.7957032378029002 7.9688205189667984 0.3878783388000339 -0.1509410493689668 -0.2680293967359229
5 2 -0.2916014345661417 -0.4273257221770829 10.3396910728696199 -2.0682505568962069 0.2516856579714598 -3.0021612598952299
6 2 2.429244628739303 -0.392120220524658 9.7416028156527048 -0.0877800722320603 0.1618183632609135 1.5419997550339698
7 2 -0.5331641619266556 2.468423871581416 10.2235319826473798 -0.2719125355746237 -1.0587833257735468 -1.9080319347366904
8 2 2.3736181074541594 2.3913060770908446 10.0426701270155796 -0.2693514585718893 -0.1810569083674897 -0.8295179544917212
9 2 0.9442132307609932 0.9830063081195326 11.6804294015513648 1.2891907815896713 0.6489603545811444 2.5753561447383052
10 2 3.6615256304170104 0.9701973221871538 12.2688746460521046 -0.8074817907859328 -0.7284637849303592 -2.1868219172289067
11 2 0.8868016733594406 3.7138146493401002 11.7051322936243328 1.3314965032301618 0.1524340896415176 2.8783607876177842
12 2 3.5695193015220066 3.6839183725357648 11.9488209435347362 -0.6040449620664692 0.5072413421496414 0.8788427908972604
13 2 -0.4886637134913226 -0.4282933311932699 13.7287501691264674 0.858125089481405 -0.6591529833954602 1.4181594306397265
14 2 2.2000901815173992 -0.480418985339642 14.3610149726276486 0.4703799338846054 -0.3120145637114061 -1.3470701962539171
15 2 -0.6518972807757772 2.284890318467077 13.9416520483656168 1.2307308115723306 0.7227587615779174 1.0073072463922139
16 2 2.2569107288146819 2.2227337155308971 13.9121993016097036 -1.2487637658681628 0.6865285594208738 0.8992254774215824
17 2 0.7381714074676774 0.8282599504786676 16.1425413791961496 -0.3044940836059969 -0.4142216164451664 -1.5244262570782528
18 2 3.5031763637179294 0.8712780982225906 16.2403993288297919 -0.134740778224976 -1.3284870256358434 -2.3210885838192033
19 2 0.7215378164213646 3.5406846697892576 16.0470309989916586 -0.5183120030856658 0.0714401901240614 -0.98656563370628
20 2 3.3892122994842491 3.5110876265160594 16.3665662039325568 -0.5407562010453786 0.8631233162591538 -3.8563389329301954
21 2 -0.6172618971668734 -0.6968863508679228 17.7166400945062358 1.0212338899952773 1.0706664556713863 2.6209881040240496
22 2 2.1054139770115068 -0.6489620610437664 18.1672822318613996 -0.1117314515380262 0.2325327306383914 0.3923908839737104
23 2 -0.7840947348428044 2.1522479050032182 17.8433437057936928 1.5053651181690352 -0.0609557409706126 2.447294324178225
24 2 2.0574473229896459 2.1491378362456768 17.7509547331098646 -1.1675495227113788 -0.2826731213309172 3.260608665090353
ITEM: TIMESTEP energy, energy_weight, force_weight, nsims
1 -1638.0754511937968808 1 1 600
ITEM: NUMBER OF ATOMS
24
ITEM: BOX BOUNDS xy xz yz pp pp pp
-0.1109029133147508 5.5354586131644998 -0.0198556900454211
-0.0913627444102801 5.6895048909102552 -0.0910472232693297
0.0 26.0877750541350864 -0.0913627444102801
ITEM: ATOMS id type x y z fx fy fz
1 2 1.3782840552315818 1.4507503654195892 8.0230082523736499 -0.4939813858940426 -0.069625247591956 -0.4154202652742746
2 2 4.1400913906477142 1.4284718630788318 7.7869869339038794 0.1419771513041809 -0.0741035970783156 0.3059678405962261
3 2 1.32714933074276 4.2021444545664535 7.6530444704434332 -0.1424993425894488 0.1504083165560297 0.4481424527113798
4 2 4.0967268880001555 4.1965760455823489 8.2886078901998008 0.832742633516748 0.0788082037439148 -1.3941771980820461
5 2 -0.0534301903841774 -0.0366001886780829 10.0913201044356313 -0.080955590063244 0.0282345819752313 -0.4692231940557426
6 2 2.6676322822137958 -0.0215275290394981 9.801487532361696 0.067336707646033 0.0337614277990219 0.7586079260762872
7 2 -0.0149503398706648 2.8747975830701452 10.3416192621925305 -0.4578933658053164 0.2883413778917327 -1.9891469332671262
8 2 2.7189289187685218 2.8526015749074198 9.8929408365914728 -0.1840463313481937 -0.2047223808742345 0.664163037253033
9 2 1.3667879295166645 1.4364836631054223 11.7461459394445846 0.5933219144330948 -0.5174010608287952 1.5813096259329824
10 2 4.0462885984060319 1.3664541671348325 12.0098803013543645 -0.183617985370224 0.2142544929914291 -0.2458492511888003
11 2 1.2636602772850132 4.2679448224280066 12.2210217087550035 0.6719126027524226 -0.7349241987289446 -1.2932466986379732
12 2 4.1409698373788739 4.201756969991397 12.0722483451762823 -1.0623849286903528 -0.1545079423775938 -0.2455695150399222
13 2 -0.1111521080591942 -0.0268019706189116 13.8134768911645286 0.1384285131361516 0.440215995235494 1.4302757596984413
14 2 2.6678622486354846 -0.121209878482499 13.8189083659308008 0.2826494671712694 0.8045178217378932 1.3585013260141392
15 2 -0.0745802003148317 2.7265695808500348 13.9918703145397138 0.1953571334267292 -0.1624644817739014 0.1089430889143283
16 2 2.7387138733338686 2.7390231228444942 14.2936171734808717 -0.3681721098195522 -0.4434879825798167 -1.56041760364494
17 2 1.2909221974804404 1.4344571110416151 16.4273728180436614 0.8536979049708052 -1.611191514439337 -4.0345995082506283
18 2 4.1290165498855522 1.3629454981978038 15.9582572294651896 -0.1642524277107566 -0.642585301445636 -0.2884889592791004
19 2 1.3254580997606842 4.1355897409382125 15.8896959478454162 -0.6812927626049232 1.0689049921089195 -0.266918679674201
20 2 4.0326444818265177 4.1791309373322223 16.072628644080023 0.7101007008411822 0.4935952060267494 -1.1757932544590619
21 2 -0.052907244888469 -0.0772617269944353 17.7227456356917052 -0.4723889947920812 -0.9394010391416178 1.7106441431262852
22 2 2.7235681385030626 -0.1304486799899387 17.8839967820788176 0.1102019015842799 0.0097853658916844 0.8274497581851258
23 2 -0.0055504284278973 2.7294214044253874 17.8264706293069466 -1.5525459106908478 1.4093315439929153 2.0064772047551598
24 2 2.6573635412045086 2.8185817826944756 17.7315528685499794 1.246305018816948 0.5342554209091334 2.1783688975904272
ITEM: TIMESTEP energy, energy_weight, force_weight, nsims
2 -1638.5834923541741544 1 1 600
ITEM: NUMBER OF ATOMS
24
ITEM: BOX BOUNDS pp pp pp
0.0 5.6724096852057002
0.0 5.7066483500656018
0.0 26.0880587969651288
ITEM: ATOMS id type x y z fx fy fz
1 2 1.3887777649518172 1.3907678400593229 7.9490706475234712 0.1836339262169432 0.4732767971101658 -0.3403566178467762
2 2 4.2623280511991562 1.457831230139624 7.8741979187761802 -0.0311031630533868 0.0901778841111388 0.0034959305296837
3 2 1.4063565625662695 4.2433039269549795 7.8195825676847326 0.0921092976684665 -0.2260962281098849 0.0592647256662271
4 2 4.2956262305332507 4.2909093581560614 7.8783798346013336 -0.093990831802189 -0.1256552669263488 -0.1007898600383409
5 2 0.0361820324180531 0.0071281744540669 9.717606241428534 -0.4172655468372327 0.0177046242755036 1.1679938095360676
6 2 2.77215482864235 -0.0237288145044078 9.8989182500674424 0.4169984090994714 0.3395693457071946 0.3706138875823239
7 2 0.001419804144207 2.9241693609746902 10.3536226796750235 0.2944744901117133 -0.8277598333648566 -1.1877334628725733
8 2 2.911453327763883 2.9086181735559262 9.8377234905474006 -0.3154608719279157 -0.3386689449779931 0.5312726827996342
9 2 1.4490698074958686 1.3997638005183659 12.2554212955267446 0.0362255741692866 0.0286382453518293 -0.467722440470263
10 2 4.2507710837065176 1.4410947718585514 12.3707305154093295 -0.0737498131253227 0.0220461910125955 -0.8355664773799178
11 2 1.4685908381865354 4.3277668878546303 12.0174277615396719 0.1542225497992348 0.1266690533556011 0.4838131825706674
12 2 4.254748577377784 4.3111862210735144 11.9606810160445126 -0.2992852833852966 0.4479100248817973 0.7135747769842348
13 2 -0.0383148584596904 -0.0063851688388884 14.2257584594498514 0.1552003407681534 -0.4717019957205716 -1.2161559925728323
14 2 2.9064406193250672 0.0315514880626777 14.3924689815800982 -0.3409124905984991 -1.3364926731244631 -2.7015881103612842
15 2 0.0456424772910392 2.918224745388427 14.2338718457357079 -0.4967414663703354 0.1730224645106031 -1.4447675320287414
16 2 2.7653411301284808 2.7743236179338324 14.3359022436906418 0.6717771055553096 1.510060725969551 -2.7188453624869272
17 2 1.432799634795793 1.4151683270745332 15.7588414962946662 -1.405120846465179 -0.3178651115677681 2.9792686613439332
18 2 4.1823351625774166 1.4478828300709543 15.8542924858210022 1.6043402927857012 0.3569836923061509 2.3143918855345711
19 2 1.4557848060812152 4.2822957431364728 15.9479564433197432 -0.8435397289542372 0.0228416906859677 1.3067529666864262
20 2 4.2266814942553861 4.2223730821366088 15.9855675976873304 0.785336355146989 -0.1985249910465154 1.0977491829159429
21 2 -0.0368326578089462 -0.0337416996994329 18.3038385929796803 0.0800947843404095 0.1216281462463138 -0.5450574014448106
22 2 2.854488153500205 -0.0478285611515698 17.7317352899798736 -0.1723958863903678 0.3541035412586024 0.8440878883930316
23 2 0.0466782592995577 2.8711740004069704 18.3789800287325811 -0.2107786170753598 -0.1153294549087987 -0.5653742676988084
24 2 2.764329739481609 2.788740323660603 17.908111437894398 0.2259314203236433 -0.1265381841462454 0.2516782017689621
ITEM: TIMESTEP energy, energy_weight, force_weight, nsims
3 -1638.5291688346814016 1 1 600
ITEM: NUMBER OF ATOMS
24
ITEM: BOX BOUNDS xy xz yz pp pp pp
-1.1036484975096148 5.7066474532160002 -0.1931871362337213
-0.9428066390407218 5.5320754009746694 -0.9104613612758934
0.0 26.0551027829311401 -0.9428066390407218
ITEM: ATOMS id type x y z fx fy fz
1 2 1.1245605075921257 1.0478313623151272 8.0041301804267242 -0.4258100977891323 0.49594776646998 -0.4592763628134188
2 2 3.8977936253431498 1.0921014357526551 7.929487521974183 0.3272375581073401 0.233370653532871 -0.3717901678039392
3 2 0.9246942334717424 3.8338204985734064 8.1079832146092112 0.2295052553139061 -0.7374374531915214 -0.7863144032263386
4 2 3.9006220338532542 3.8049911277010962 7.7263593351681736 -0.3132165549761169 -0.0914801484439217 0.1321948707376679
5 2 -0.3840549382165911 -0.3961198614632293 9.7624457641814396 -0.2063254644112337 0.059647048877056 0.8799403953270036
6 2 2.5646179593772422 -0.2773230021041066 9.7660700289785486 0.1393008888283791 -0.7709633678357894 0.6753172590791174
7 2 -0.4512262995230534 2.3765054823982137 10.2541915355345364 -0.75559613448809 0.6240489249259956 -1.9552314963199624
8 2 2.4257967030452092 2.4261295856080896 10.0204720525510833 0.4284053704791836 0.793530464581498 -0.7148428456297008
9 2 1.0345242118302362 0.9959135281213864 11.6591686594293656 0.0238071403542006 -1.0312779089805018 1.7451223948068074
10 2 3.7708060750927088 1.0051581713551929 11.8198791389047636 0.2175858728453022 -0.3313999188740571 1.1625399830746681
11 2 0.9043760947728192 3.6924158132128052 11.9251078825141886 0.0104638803189725 0.4758476443092766 0.4214312500395519
12 2 3.7132915625252352 3.7846613910704008 12.2021804510181564 -0.0711087747785615 -1.0809318467376623 -1.321360181600225
13 2 -0.4792942960650724 -0.4680694312929062 13.8307285953624834 0.6443552496523246 0.8231650128532746 0.9369032113048982
14 2 2.355679400657349 -0.50438515246231 13.7822608931656738 -0.3025791251162503 0.7199035502421716 0.97864071889298
15 2 -0.5802693534792436 2.3171777731949388 14.3627164729638164 -1.2078520969843054 -0.961807956088842 -2.3120915185088245
16 2 2.2318918377409638 2.2820615844775403 14.3452178659347993 0.7509329226018746 -0.3835953932411995 -1.9829798824702592
17 2 0.857940039713415 0.8572983767124678 16.0923115169209048 0.0755303028596802 -0.4808121896205704 0.4307497033886236
18 2 3.6491469880059904 0.7388501029065826 15.9504336657370072 -0.0058850006541098 -0.1241457715862169 0.5826819134689188
19 2 0.7554961391383956 3.5716462957500648 15.819439030985544 0.5554474910700992 1.9455050087169668 2.3335646103708232
20 2 3.5968016120161748 3.5426424979255842 16.2931676987642433 -1.0591630778800665 -0.8342487864212776 -0.8542144398265922
21 2 -0.6022787067702264 -0.6374650969069474 17.7376964686835664 0.8198966250549856 0.736850470077653 1.7189626940093762
22 2 2.1521604881118166 -0.6255053439891332 18.3974168821679349 0.0397981236073947 0.1787724821884619 -0.5061607070083412
23 2 -0.8084160004346276 2.1209769286355345 18.3841339907691968 0.2174475474334488 -0.0978433744996062 -0.3850496098386762
24 2 2.1025463060420733 2.1754829798731574 18.4293213555256337 -0.132177644338794 -0.1606443970331768 -0.3487368752332962
ITEM: TIMESTEP energy, energy_weight, force_weight, nsims
4 -1638.951252484419912 1 1 600
ITEM: NUMBER OF ATOMS
24
ITEM: BOX BOUNDS xy xz yz pp pp pp
-0.9938126539775664 5.7066474532160002 -0.1744008528177342
-0.8455710730853744 5.549828781201625 -0.8194118011598324
0.0 26.0614599881940237 -0.8455710730853744
ITEM: ATOMS id type x y z fx fy fz
1 2 1.2158957586135286 1.0829046353550809 7.8488465079724322 -0.1830721399253084 0.0395289289861857 0.1680512343281043
2 2 3.9411142991993322 1.1044528332475709 8.1450610621982449 0.0080645257773082 0.489946037680217 -0.5860976255441448
3 2 1.1063888672645437 3.826030518251355 8.3221877750080058 -0.3363348964857913 -0.1934491169186183 -0.848735416542959
4 2 3.8253055825616378 3.917608659514709 7.8585726448400256 0.0832032494506453 -0.3044472895075632 0.2454054785849734
5 2 -0.3025356108388298 -0.2465467462483915 9.7546533171130926 0.1478169005224428 -0.3324738691441526 1.2818837031419541
6 2 2.566166979480185 -0.2925916008071616 10.2092798497311446 -0.0942101469997929 -0.3883660772875539 -0.2535872467187968
7 2 -0.4069024134569129 2.4042908738970832 10.3429464718645914 -0.0594071648449757 0.1253073965132678 -0.6753218870668746
8 2 2.4196108360789008 2.3835220445031063 10.0792435889740499 0.2548445167261626 0.215421774347961 0.6004413022662156
9 2 1.0317998438189306 0.9483647531401506 12.2857423111664943 -0.9717383322635846 -0.6531000896299374 -1.9980673796690808
10 2 3.7979365841937352 0.9196971827066922 12.2260772046695241 0.7621663344406928 -0.022116382160246 -1.3605741503084919
11 2 0.973091924163032 3.753239934943749 12.2524201284255892 -1.1120401519996681 -0.0439111191713684 -1.8172822370271092
12 2 3.8400997352771662 3.7896351677674378 12.1512938452334005 0.3671565236172832 0.0381981253955669 -0.8294369647059706
13 2 -0.3840398104271935 -0.4002392343525197 14.3070821785808207 0.2654071274506215 -0.7913244570839114 -0.987025861377688
14 2 2.4510896238571488 -0.5075449064406732 13.8079270354269354 0.3894253722630851 0.2455965116351723 2.7420871170034596
15 2 -0.5202769110279112 2.251589290907202 13.8537118083341966 0.1748556618833062 0.8193469229536054 1.7179658768685672
16 2 2.3514882682342497 2.3219665455437757 13.8013908212618954 0.494338255172207 0.3620402831517265 2.4405901696910952
17 2 0.8859815268532952 0.9051998643360378 16.1478057036929599 0.3666235336939153 0.3598677000101637 0.1081193070935512
18 2 3.752362648350549 0.8820066135293536 15.9082461573354834 -0.513083919582644 0.6143571472311786 0.7694608144772932
19 2 0.7479118564400504 3.6347614246866096 16.3419896420649949 -0.2164263048016989 -0.6873525983520818 -1.1941177719835965
20 2 3.658114347244219 3.7111439134586544 15.9890862000728618 -0.4317372645539186 -0.7214282150977296 0.1174318469027109
21 2 -0.6444524408929914 -0.6090919162629346 18.0864551647107454 -0.1426826623267191 0.2525994284430708 0.3040035169037364
22 2 2.2642767082617739 -0.6422241451473386 18.0195319416070596 0.637223520518518 0.7897776807312912 0.6919481901949566
23 2 -0.670456588301775 2.1432899586809304 18.4053197338122949 -0.1152926881171723 0.0099879689112763 -0.4075341741360487
24 2 2.1859403371881294 2.1983686834625567 18.3497619134094627 0.2249001503850861 -0.2240066916375204 -0.2296083565967187
ITEM: TIMESTEP energy, energy_weight, force_weight, nsims
5 -1639.1042755746734664 1 1 600
ITEM: NUMBER OF ATOMS
24
ITEM: BOX BOUNDS xy xz yz pp pp pp
-0.8838740907913602 5.7066474532160002 -0.155506143100136
-0.7489974782346002 5.567519388306594 -0.7283679476912242
0.0 26.067120982467614 -0.7489974782346002
ITEM: ATOMS id type x y z fx fy fz
1 2 1.0945624028152787 1.1940700241532398 7.8227143330054512 -0.2905697539968124 -0.4910991779630464 -0.1763175917937116
2 2 3.9865502414557002 1.102318174007447 7.7003604805379444 0.1194761319392275 0.0936365336283342 0.307062359700798
3 2 1.0924766929577201 3.8746344324202182 7.7941604086812548 -0.3964887100222578 0.3977122985631687 0.0491769979077406
4 2 3.9006316600082198 3.9484424047685938 8.3572623561445205 0.7703229057522826 -0.0013865965541358 -1.9862891508270704
5 2 -0.2274105191119099 -0.2588990156796624 10.0146620424517767 0.3931676145856229 0.2281507975636396 -0.6412213306094242
6 2 2.5296627304884116 -0.2342723580188846 9.8352993963956124 -0.5565558941379426 0.18193545471006 0.4756614963572658
7 2 -0.4311447625682843 2.5591720489959822 10.1207917188197953 1.0787384376511922 -0.6265171850631558 -1.4697951755986816
8 2 2.4693833010305496 2.4657121299430882 9.7196865014141736 -0.6962784440730864 -0.4635631650287176 1.0015397452050503
9 2 0.974823650256776 1.1082491946262978 11.9244696612322656 0.3624208065895385 0.0121870344272273 -0.055378501502355
10 2 3.9490338644944352 1.0349074978437205 11.7373390131233286 -0.6695495007815228 0.0088037182663014 1.0937997095860561
11 2 0.91133504427873 3.8448401262414672 12.0551702058383601 0.191891284817467 -0.351850996773013 -0.8419448729510286
12 2 3.824834937894102 3.7951657706416526 11.7085583048465836 -0.8263141014116012 0.4819131364859162 1.1220641163712779
13 2 -0.3798326363567383 -0.4184326741030476 13.748031603530162 -0.6667341415625748 0.3315112476906602 0.7041768765119982
14 2 2.396485650510213 -0.3538237467324809 13.802282495718874 0.7278400350248646 0.1134216955111189 0.6080414866052206
15 2 -0.5347227439624694 2.3849042636751357 14.4063020029883209 0.7476365097666112 -1.1449032359529363 -2.740356763803138
16 2 2.3850518256998887 2.3820272413886903 13.7138941018915244 0.345108789942102 0.1009533822724277 0.841415739684125
17 2 0.8940617990497904 0.8646890971629458 15.9519076275380662 0.2873941830640975 0.0835711744773407 0.3647648823885476
18 2 3.786702382640994 0.889111532652003 16.1053126345198905 -0.0924278574924187 -0.2868331681037556 0.0338254482963295
19 2 0.941387839391107 3.7692636222287602 15.91983203516914 0.2197700259562578 -0.0761982757592992 0.3722948755799022
20 2 3.7764535954443682 3.686878684487057 15.7605619259662646 -1.2475100954068301 1.2366564356745311 1.6851827542593254
21 2 -0.5162347631244344 -0.5852378581168522 18.4358201255485206 -0.088185792492106 0.1574035200509996 -0.6231266698101632
22 2 2.2945768332736885 -0.5374859804466282 17.9923766902431766 0.2072055534163898 0.0862235256830638 0.2388360499636636
23 2 -0.5629979013559734 2.2344787959965724 18.3522020148609606 -0.0068633058438904 -0.1133203940013229 -0.489649075132465
24 2 2.2679376392851207 2.2888096721941862 17.9380606302520072 0.0865053187153896 0.0415919830841619 0.1262363365003052
ITEM: TIMESTEP energy, energy_weight, force_weight, nsims
6 -1637.4171937801098696 1 1 600
ITEM: NUMBER OF ATOMS
24
ITEM: BOX BOUNDS xy xz yz pp pp pp
-0.7738099813611832 5.7066474532160002 -0.1364858871385671
-0.6530858544883988 5.5851415156421256 -0.6373240942226162
0.0 26.0720800591044579 -0.6530858544883988
ITEM: ATOMS id type x y z fx fy fz
1 2 1.1219114431207453 1.2385811770410083 8.239856682791455 1.2020239177354366 -0.8580379290453116 -1.1284995904580608
2 2 4.0254024162084487 1.221121972419895 7.7998121155538912 -0.5781081760126752 -0.1417982024442368 0.1105819108012301
3 2 1.0528532615677104 3.934395939129824 8.0458360846156172 0.8294539339944136 0.4361384809109919 -0.2702058365339499
4 2 4.0190049113693664 4.064156820995672 8.0740121815354922 -1.0620352585042552 -0.1513501120646149 -0.570576383048304
5 2 -0.232609635623594 -0.3045153529936943 9.9403377100303824 -0.0038625700042244 0.4479640180722977 0.9269514949643864
6 2 2.5603076862039442 -0.2315090278874999 10.3017827775137683 -0.1053620548319987 0.1357972449857667 -0.958229750221253
7 2 -0.3761978125920792 2.4868154650958938 9.7187328511520122 -0.4802444897890236 0.3225933723930151 2.0773898042749037
8 2 2.5364113985756696 2.5166202458602856 10.2490493883862222 -0.2128653253329838 -0.1873964802635264 -0.6326492688414124
9 2 1.1189920849556605 1.0481756404503502 12.3922604071088039 -1.2873082190142249 0.4185361865870082 -2.899975290216807
10 2 3.8696991398402032 1.1011900110478872 12.2970008481968538 0.99481116522698 -0.0547174705843718 -2.4874971396039416
11 2 1.0607401972148167 3.857652479381101 12.1777054386784158 -0.982729803186875 -0.5553945263213226 -2.0112815702679696
12 2 3.9648680623727146 3.9588139514717682 11.8943358221400288 0.3939080926267709 -0.4773581680911322 -0.0148298725470051
13 2 -0.3403892333300665 -0.3837391813147012 13.8422174242678048 -0.3069024370127445 -0.2829279177679928 1.8478387833042876
14 2 2.5182265523645336 -0.3968990108276216 13.6937264994991796 0.857008715990202 -0.6351848919114824 3.1380852603234568
15 2 -0.482988207696946 2.4855181114469348 13.8487380514905834 0.3818526987401922 0.5096494384459582 1.6671726827918488
16 2 2.46912028502206 2.4726447640500472 13.7773057665446502 0.3301902142964177 1.0863550770577783 2.580892503648041
17 2 0.9273272501388652 1.0542602454833636 16.0304653540844804 0.4905106521865924 0.0860258077616601 -0.5394415954119098
18 2 3.8334724035715736 1.0185953089115027 15.8284536633705262 -0.2663139559405968 0.1998632508396318 0.0940291412564012
19 2 0.9787215219580468 3.7638053593999202 16.2486938785952013 -0.1778139745018648 -0.5236082208528906 -1.5111233633806844
20 2 3.8241821524849008 3.8199813886687028 16.3714099450173905 -0.6544895143988136 -1.7066543034587386 -2.7606970271063528
21 2 -0.4713000561162898 -0.3777215608621287 17.7840343507397556 0.8425390551569636 1.2335623687484288 1.8280574780779678
22 2 2.484035073534689 -0.5146908210452066 17.8649412295791734 -0.3722928186964546 1.4011603173867611 1.5602101155271602
23 2 -0.5209401747275082 2.4119197569391156 18.0942712457790549 0.0985391153257682 -0.5338011067776374 0.4127306330560632
24 2 2.312947685217829 2.2826186117255882 18.4339643768691275 0.069490778836567 -0.1694164907164709 -0.4589331203880952
ITEM: TIMESTEP energy, energy_weight, force_weight, nsims
7 -1638.3501974008363512 1 1 600
ITEM: NUMBER OF ATOMS
24
ITEM: BOX BOUNDS xy xz yz pp pp pp
-0.6636203256870356 5.7066474532160002 -0.1173457915804806
-0.5578362018467706 5.6027008698556706 -0.546274534106555
0.0 26.0763600446943684 -0.5578362018467706
ITEM: ATOMS id type x y z fx fy fz
1 2 1.2737876709188909 1.2312968237944977 8.1197430427050801 0.1497840524296731 0.3900056705057487 -0.5873338124961724
2 2 4.0765477606805387 1.2297618856048431 7.9124125116257202 -0.088824969023458 0.368016043787963 0.0020005762632543
3 2 1.1734655731287369 3.990875673524759 7.8918930239065492 0.2619682754366096 -0.1155649680635528 0.1909728863580988
4 2 4.094877898996395 4.0640240444995701 8.2077690113079562 -0.7805211909960794 -0.9547723862562124 -1.1878913286771793
5 2 -0.1768983867584319 -0.1616951136460645 9.755643490108982 0.3531455477928672 0.2588466976943951 1.1611179052810603
6 2 2.711895803092459 -0.1792952274212692 9.9637928188937436 -0.2579972048305225 0.0636266041273645 -0.0642488113702735
7 2 -0.3485225519418822 2.6208516796811648 10.1809645682539713 0.4153112504515501 -0.8699102603050508 -2.0516533072468235
8 2 2.5567831519635726 2.5949315093451998 10.2109445593973582 0.0880868049761886 -0.2837432149445484 -2.0022474810555333
9 2 1.1213682703680945 1.1624703118882973 11.7109141571602784 -0.1803331425043537 -0.8977062118850744 1.6963526598216982
10 2 3.9932199162057688 1.2183275317854467 12.0533776012632536 0.1847677832174511 -0.799638379979245 0.439935487755323
11 2 1.0918810615413377 3.9158011240312552 11.8184243819885478 -0.0032357347735581 1.1005866536319533 1.4325830687058241
12 2 4.0142855257434533 3.949069603477776 11.6711216317320724 -0.1811091017849733 1.5251610786899198 2.4527016136516222
13 2 -0.2432410579820023 -0.358398180640927 14.1943249900127953 -0.0848045332146278 0.2789604467079391 -0.3093408723399138
14 2 2.606730512172573 -0.2404277632828624 14.2651979289782674 -0.0570803154448406 -0.2308846527759752 -0.3858957602669464
15 2 -0.284432901844846 2.5301687591156258 14.1275747235703886 -0.2896282155986583 -0.2271573228584327 -0.0281777605699904
16 2 2.4499023562448423 2.5229522298557372 13.8715778817396114 0.2664571664506382 0.2821601860211636 0.5669709234750338
17 2 1.0697281296561252 1.0779384764349078 16.3177308113602706 0.086362879536641 0.2660406475524925 -1.7671593298438886
18 2 3.9225413924773056 1.0105394934948355 16.3921188436597696 -0.4845248642435486 0.7230521245796362 -1.7963174524871074
19 2 0.925581962937601 3.8498658923777138 16.3736932876521877 0.8089421780337524 -0.3340833804419256 -2.1044553051205863
20 2 3.8493069910820502 3.8840970332570786 16.3489024921576984 -0.8510190713906938 -0.7888117168421964 -1.7054533406357516
21 2 -0.3641159031937188 -0.3778692763306429 17.9180657112992102 0.1087448567720626 0.3698901217191879 2.2794927440785773
22 2 2.4026744010591754 -0.3445777669864332 18.0114999169753602 0.3407949911315531 -0.1766731755197212 1.514317189153997
23 2 -0.4293833186034601 2.4584186812820802 18.0054528090809924 -0.2269107539551477 -0.201045958822021 1.6812641341811534
24 2 2.3358491990266322 2.4046183864345188 18.2194953952358603 0.4216233115314747 0.2536453536761924 0.5724658876053862
ITEM: TIMESTEP energy, energy_weight, force_weight, nsims
8 -1638.8544409638905112 1 1 600
ITEM: NUMBER OF ATOMS
24
ITEM: BOX BOUNDS xy xz yz pp pp pp
-0.5533165370638234 5.7066474532160002 -0.0980858564258766
-0.463242813662262 5.6201917442997776 -0.4552306806379468
0.0 26.079960939237349 -0.463242813662262
ITEM: ATOMS id type x y z fx fy fz
1 2 1.2553290794036927 1.2601627970522136 8.07134888729159 0.7309472145829456 0.3344690460883569 -0.7987148393112578
2 2 4.1305418804712106 1.2656207763223071 7.9504369723850976 -0.6106218468902766 -0.0396775388152772 -0.4698065776235774
3 2 1.1803020287411521 4.1275203298691521 8.3615406126624841 1.3560112114903484 -1.3287343658704214 -2.3121557961165631
4 2 4.0123858377584396 4.0213805222513717 8.0213822901281038 -0.52254635477305 -0.1446163898779254 -0.4719256817955018
5 2 -0.1609689866868441 -0.1870412429535259 9.658025022877757 -1.2097745116765497 0.71631660261993 2.60192645089397
6 2 2.6701953041293246 -0.2282583261413444 10.0780427938041743 0.486686905857442 0.1272215836717216 0.5600045163483308
7 2 -0.1976251052018489 2.5620498108411104 9.8459024534879288 -0.2883262083763064 0.1387391025367442 1.4178951211167057
8 2 2.6946137109695246 2.5685648200720604 10.1426898009803566 -0.1346592742183636 0.3305090312308009 -0.0737045616894747
9 2 1.1454433434747182 1.1602214841700926 12.0182223679373283 0.1417814902662248 0.0347605589337098 -0.2386460453551885
10 2 4.0863982501355087 1.1816624215925238 11.9290002135681022 0.0039589864158322 -0.2108824896894653 0.21053076261992
11 2 1.1928310016825974 3.998825224461108 12.2297099871857906 -0.1997475511457024 -0.068727932187926 -1.297269191330251
12 2 4.0018563092629265 3.956759929220829 12.3842989556531222 -0.724236632335042 0.108283086438069 -2.5667447450743572
13 2 -0.2930517714391782 -0.2249155349674914 13.8867316014133646 0.689039757000003 0.8122843565257256 1.4677460054639768
14 2 2.6356660833790606 -0.2715822632845246 14.0432609189745712 -0.4391322747690222 0.690217322773773 0.6009113001339998
15 2 -0.3608498789587679 2.6075470873499382 13.9234626184001832 0.7756993419739652 -0.9454004539375022 1.3746069805195389
16 2 2.5028662113149318 2.5679110503352236 14.0250727542155484 -0.2664101152417736 -0.6945277791487196 0.4922422909390686
17 2 1.1966112714876516 1.1278957787177353 16.2070109582593389 -0.3118317581949977 -0.1360245306067302 -1.1603717708104315
18 2 3.9686883510160182 1.138159271155619 16.0806744114774851 0.3687770906635874 -0.1566311603164133 -0.476506361233381
19 2 1.1206233313907608 3.863810670872327 16.3580687000154974 -0.2635171086726774 0.1007695483142955 -1.923846026013388
20 2 3.9143052656082102 3.8785929307696398 15.9448995268317244 0.3367557862612632 0.3142951332339695 0.1086201582130499
21 2 -0.23122102351527 -0.3375168393789505 17.7635490909841246 -0.889804694120991 0.1878291971188222 1.514866634144946
22 2 2.6136599659751778 -0.2759669813898388 18.2218496365732463 0.2721650180178206 0.0965812193940522 0.0134707868089814
23 2 -0.3723059032965041 2.4083098206338263 18.3408420663546146 -0.0276990209475537 0.0633358122299553 -0.261466395875387
24 2 2.5552250088185416 2.5553852036938456 17.8709411541397182 0.7264842917224432 -0.3303889606595453 1.6883367279158404
ITEM: TIMESTEP energy, energy_weight, force_weight, nsims
9 -1638.5117675340770808 1 1 600
ITEM: NUMBER OF ATOMS
24
ITEM: BOX BOUNDS xy xz yz pp pp pp
-0.4428872021966405 5.7066474532160002 -0.0787060816747551
-0.3693056899348734 5.6376198456218996 -0.3641811205218855
0.0 26.0828884493808495 -0.3693056899348734
ITEM: ATOMS id type x y z fx fy fz
1 2 1.3629293722738265 1.3520572982531611 7.6902084066166374 -0.3544557825490096 -0.4178874969697108 0.0965243979888114
2 2 4.0959861378195379 1.2592564784630429 7.8186144664529378 0.3402023515882037 -0.5356587296412812 0.1294910974457539
3 2 1.1822650111070261 4.1444418468221978 7.6868750134728058 0.0503476216998749 0.3064697201574487 0.2536816062469569
4 2 4.117375153917874 4.0350303348687664 8.2970241981026369 0.2057227975610771 1.8433550344988782 -1.754856852833163
5 2 -0.2119126902265488 -0.0881230015331977 10.3283543339627286 0.341945046089211 -0.1496986917665963 -2.124253065414488