ITEM: TIMESTEP energy, energy_weight, force_weight, nsims
0 -3694.3180268221350972 1 1 500
ITEM: NUMBER OF ATOMS
54
ITEM: BOX BOUNDS xy xz yz pp pp pp
-4.1501784107322992 8.3003568214645984 -4.1501784107322992
0.0 7.1883165163088796 0.0
0.0 13.7386012044654162 0.0
ITEM: ATOMS id type x y z fx fy fz
1 2 0.0951685711721844 1.5567593313039814 1.0336648774215689 -0.3046853737666268 -0.0899176883550132 0.53912097870451
2 2 1.4342252954663251 0.8774202906136944 3.3416097460394738 -0.1394602972955706 -0.5721383289163504 0.922000833616364
3 2 -0.0333624542081949 1.5404260385156244 5.9289537996323504 0.8088033384010372 -0.0510659882439608 -2.0186475270043762
4 2 1.456395133518616 0.8076497716747488 7.9929093540196714 0.2723596506140529 -0.4451782265529094 0.371202156248347
5 2 -0.0022253256638346 1.5391163272463526 10.2268430040889982 -0.3498550484975158 0.5951893074931148 0.5212255784892384
6 2 1.5330933356738364 0.7292690872125684 12.5262534536386916 -0.4659607197973652 0.5981586758602044 0.4604973802500202
7 2 -1.3305700244620342 3.9286169678569106 0.9897274569095682 -0.3609089972555281 0.3683960530049133 0.2793345423849774
8 2 0.0877625777982328 3.1328041969895679 3.2305331553013708 -0.2979002294937465 0.7097062934400984 0.848001109152154
9 2 -1.2066701831701912 3.8968712056259358 5.9546477316049416 -0.704262751395937 0.1803071743508273 -1.5101381162092682
10 2 0.0737694212507666 3.0801303700530114 7.9929409528024414 0.3494362156054915 0.5254424466673176 0.6934121769888094
11 2 -1.3249681136432274 4.0715451404772862 10.1244395922912762 -0.2352773844888271 -0.1937188257606892 0.8608818275220954
12 2 0.106873319343973 3.0890877312639837 12.6134743372453606 -0.1792903025964036 0.2575662877482434 -0.7853594950857748
13 2 -2.8104111758942416 6.3600211807676397 1.3258176058946465 0.2315261433012059 -0.520448333656464 -0.6086734640445058
14 2 -1.4348747983876049 5.5586640613712684 3.593004166319263 0.1224205605945145 -0.0930366949929181 -0.3061565596525465
15 2 -2.6360721412875634 6.4075575178899902 5.8008523342816734 -0.6049883002376398 0.0621772726280759 -0.6222105853446734
16 2 -1.4636176890068136 5.5268766069044988 7.9137379168586994 0.3552255711792864 0.5667292396699368 0.8787052368167
17 2 -2.9528843106276348 6.5031721912000214 10.3285004098413218 0.9863828281898718 -0.5721920649964198 -1.0447949756670547
18 2 -1.469356555713174 5.6066036630501826 12.4754920699084302 0.6884820844752634 -0.4299860854086898 0.4290337483724356
19 2 2.69811689351017 1.6232907948206786 1.1507205074038551 0.8533325510484194 -0.7171558110665644 -0.5464889923243634
20 2 4.3196111044218091 0.6913349032927032 3.3221558867339503 -1.2228776305692668 0.751821753361683 1.3212779062623197
21 2 2.7453820303764768 1.6083958841672344 5.6844905036602126 0.5162504916502754 -0.2009814241038515 -0.1759026155581516
22 2 4.2161218405539476 0.7141786543498814 8.0052644780828484 0.1597553091629374 0.3445228352699574 -0.3712438081381616
23 2 2.70001186497251 1.7140950467179952 10.3110427692908058 0.5984900912057044 -0.3654716789632406 0.107105263553868
24 2 4.1885231541225778 0.8137972199594962 12.7182902474145862 0.2227314238999878 -0.0795401971408413 -0.0856206017224763
25 2 1.4998715725137658 3.94088311116034 1.101345348535127 -0.7510877030813088 0.7233711986244502 0.0108163787198106
26 2 2.8657816111967086 3.1194123633196846 3.311186987532305 -0.4405114151206604 0.2902743341116461 1.0855603487156991
27 2 1.4374055771824694 3.9207587002412816 5.8528996510846706 0.2996652926022468 0.1253734738940231 -0.4866210855871178
28 2 2.950724142764848 3.10544258900189 8.0528426279140302 -0.2626187648269236 0.2333811950605401 -0.1859697744821618
29 2 1.2997923013680437 3.9641617553667552 10.147994424056332 0.4699922113547264 -0.0424815851752633 1.2266558683521383
30 2 2.8332052007795064 3.2751299886858769 12.5721953360664234 0.0156192015700344 -0.3870550712001186 0.0890584252947644
31 2 -0.0337621163891486 6.3493587508789995 1.3525982612225109 0.0649296397914402 -0.5227001068107606 -1.1728925345770371
32 2 1.3486282807628125 5.6276790882443494 3.6328900733360672 0.3042896808133883 -0.9964301896106984 -0.8692489722766368
33 2 0.0554509487636354 6.2926817504745092 5.7514744276927052 0.0667764640169839 0.5866609544983654 0.4621408301246792
34 2 1.3808170645164526 5.5329643921621604 8.1990900377355658 0.3367051355063652 0.4434319325058687 -1.0795503923921457
35 2 -0.1304239217535144 6.4735987382202742 10.2204229557461517 0.0404223877337514 -0.0365325640238459 0.5304123912976616
36 2 1.301664446849125 5.5345551666072188 12.549644796049412 -0.258488028643214 0.151287891340324 0.2837221318892102
37 2 5.6014601094310522 1.592537020268954 1.3636921816951167 0.0085836317374047 0.2499190522003737 -1.4246023609290069
38 2 6.9403865181230958 0.898913356997458 3.468749509305837 0.7791109402822958 -0.4463239106332411 -0.0600666531003731
39 2 5.5856072579377374 1.6433282271098892 5.5484426313728736 -0.4194239889050928 -0.5351532505340254 1.1960525279765262
40 2 7.0363681092459434 0.8227624883186366 7.9270808463484758 -1.1300034293687118 -1.0298424614444848 0.9097366660598504
41 2 5.6137429774554556 1.5030352913243922 10.3166220152399397 -0.3865107684177887 0.1986823426302593 -0.1494685779308923
42 2 6.989919727490867 0.7354797926826594 12.7985593988117952 -0.4956014387194848 0.4496234087936758 -1.1003825079497756
43 2 4.1030224235581949 3.9137522481328352 1.2244226074253306 1.1187062541430166 0.5163677340067906 -0.6878809602876926
44 2 5.5484307897700794 3.2718183312668137 3.5397918161341284 0.4905669593709714 0.1461978761387244 -0.8556722559701022
45 2 4.2263844017280068 3.9583837865509462 5.6153990782029562 -0.2205441854638607 -0.0288436765861617 0.776557833702921
46 2 5.6416280261971662 3.1610161828211254 8.0852959516792193 -0.6534322763067302 -0.3713723633536386 -0.2871800100751127
47 2 4.2226625217292622 4.0618452261701794 10.4633255466214622 -0.3310672179764023 -0.4301457509863123 -1.5508703220123192
48 2 5.6485393183045592 3.1483697775739827 12.3720445244191684 0.1150618029501755 -0.0476428199662371 1.1418688186468151
49 2 2.8078285198692422 6.3231630878302667 1.0331249503942337 -0.2491076116802823 -0.2179980208661217 0.9425383006201204
50 2 4.0006620082180513 5.6735908658340142 3.5974705855708354 0.9469364316520224 -0.1953360503713909 -1.2086535101975897
51 2 2.836514553044224 6.3287282824771918 5.7008050925905156 -0.50957179109581 0.4397696515273576 0.8778698850265296
52 2 4.1148877836344777 5.4884004239193028 7.8578080713553202 0.1325136876720511 0.2829916811548694 0.8456740026415878
53 2 2.7186171147878234 6.3653987603534903 10.4993701407414992 -0.3869671394327324 0.083305836512596 -1.0557458231422543
54 2 4.18102959198416 5.6301274288498044 12.4730136262511434 0.0053262996876464 -0.2619669898844548 1.6395790771209862
ITEM: TIMESTEP energy, energy_weight, force_weight, nsims
1 -3694.1515654727948310 1 1 500
ITEM: NUMBER OF ATOMS
54
ITEM: BOX BOUNDS xy xz yz pp pp pp
-4.1501784107322992 8.3003568214645984 -4.1501784107322992
0.0 7.1883165163088796 0.0
0.0 14.0445274558341389 0.0
ITEM: ATOMS id type x y z fx fy fz
1 2 0.0925639192016089 1.590544418930633 1.3015246172178423 -0.3974053087086094 0.259329036862865 -1.0688751672989287
2 2 1.4078911683967057 0.7441323692733404 3.5094760141714918 0.8286260384067412 -0.5744872898135478 -0.0861836735662659
3 2 0.1738920603918423 1.5338436970816406 5.6147183773878818 -0.892834483439355 0.3247623559885444 1.2956697073392851
4 2 1.238287072338832 0.8610208653133874 8.4286630450058624 -0.0984956636629369 0.2678015968940975 -1.0514921881725488
5 2 -0.0490239824767753 1.6794358598029604 10.5726388104926966 0.4569068330817454 -0.4850851078725976 -0.3927575234482511
6 2 1.4621489408672552 0.8232613574848686 12.6844666526331232 -0.382537898038685 0.2918180251390949 0.6433337499101436
7 2 -1.4081393490656675 3.9467890320101402 1.3319857928168009 0.4606763291099644 -0.0893978110636239 -1.2317404842346875
8 2 0.1182344327433524 3.093681784349557 3.5098847099204566 -0.6606717347111066 0.6547643654495038 -0.181138669484533
9 2 -1.2310711571360915 3.9570309453825768 5.6264610067937034 -0.7746163928387862 0.1979279806258398 0.4282107378829514
10 2 -0.0821515365869226 3.2818654412616586 8.0871703599172538 0.8437202204767672 -0.2273211022029505 0.0643313438186098
11 2 -1.3571523322006156 3.9657137129026258 10.5687316229544824 0.0869354644663759 0.5282891733588422 0.2232654422650796
12 2 -0.0304577443385232 3.1412921611320255 12.7687001105022358 -0.0090788264274224 0.1350526531777234 1.2093127413425562
13 2 -2.8510434976245156 6.4672715820226196 1.0261591852022849 0.8865478762920946 -0.0649178127116163 0.4124953770117401
14 2 -1.478638429728777 5.5124417485080982 3.3361033449929472 1.0671065046443951 0.6364786716000438 0.5118621308147498
15 2 -2.7954535178841208 6.4578060068339438 6.0669212635053373 0.2620862891244175 -0.1323979879781217 -1.0146598333862105
16 2 -1.3605272572842229 5.7089178473534146 7.9900833505205648 0.0915110016956362 -0.851180279630902 1.1666655770497585
17 2 -2.702788749347131 6.2915955958488956 10.3674932068508206 0.0178002693558185 0.0483136210805965 0.7151182109012526
18 2 -1.4916961360624642 5.6895812759245432 12.8626200789576366 0.7609807982435632 -0.6635200040652168 -0.2067126727202507
19 2 2.8461031252443806 1.699035523616328 1.3661139945344778 -0.5503921857766786 -0.7693682547221498 -1.7694578970966188
20 2 4.1489482978513586 0.7572632670536818 3.2927886178664094 0.1408566640460827 -0.3081383668543412 1.2616812510297309
21 2 2.8375624730929344 1.5768233603643028 5.9886426852775 -0.530067863320183 0.1177244385731368 -0.799975965975088
22 2 4.0193299257273667 0.892948491952225 8.4091060405236125 0.6255437649715632 -0.480303625188143 -1.0582120263959669
23 2 2.756938617179002 1.534443921510752 10.506323360751738 0.2014933309718812 0.5133374304675646 0.7116695886908646
24 2 4.1942420999725672 0.8818058825202946 13.0108867508561303 -0.4996069621233196 -0.4451599717123116 -1.1532135593022366
25 2 1.5136555600693304 3.9784873513521072 1.3625986493122826 -1.1202399178636582 0.5327832065814898 -0.9664791383984172
26 2 2.7088845313968148 3.1503630977439552 3.3893335085033045 0.8502742224722196 0.4757813098180904 1.9128177882984712
27 2 1.3753409041034912 4.0154769904817291 5.8326782078804618 0.4970260876174018 -0.0532609399930165 0.055860583560394
28 2 2.765147670075431 3.1202454892039247 8.0158438227800541 0.0386655521590416 0.8827477841225922 0.7473043230898184
29 2 1.4787803658304236 3.9795275007520168 10.7522486543143768 -0.0939103562373004 -0.0440712989698528 -0.6393583084267304
30 2 2.857231828652759 3.2178599521687921 12.9516146316342712 -0.1299132727733807 -0.1006476779700232 -0.0160737728119613
31 2 0.1121398957471921 6.4080211643052927 0.9748573353116136 -1.1223299685568846 -0.4247037516047366 1.4224984262725089
32 2 1.3056208119280761 5.6979578211609976 3.6702928758045208 -0.0885331486843251 -0.6136938023193168 -0.7304697605126638
33 2 0.010211928997448 6.5117507281305844 6.0163342800621686 0.3545452569789817 -0.4961809656308554 -0.6457477597463722
34 2 1.5102598840936688 5.5004868593098256 8.3388272251346187 -0.3241008108496994 0.1482591304636839 -0.8584711601214692
35 2 0.0735395013668123 6.3123913955305771 10.366352791221404 -0.1424093539386149 0.0657364523237743 1.0541154858995745
36 2 1.3463805441355603 5.4783403749547288 13.1033278305704322 0.3966856566123687 0.0379973221489917 -1.2941134179007197
37 2 5.5048476911897738 1.5120041538417904 1.1275058997763292 0.9875560230863156 0.4319974603100442 0.3689084740938049
38 2 7.0718106328735964 0.692934303717582 3.4699687584382306 -0.8585084411339576 0.2382184707085117 0.0855815209369713
39 2 5.413864574944812 1.6108887923350904 5.7622926540828034 0.9433073179191044 0.1690344246160731 -0.1976263900903306
40 2 6.770939713826988 0.890806373630365 7.9701668061354454 0.865730416029029 -1.1881690079426095 -0.1917048797550253
41 2 5.6692669693591196 1.556962760661393 10.3860235563760437 -0.7228420653575466 -0.6726703071924444 1.3515518881758793
42 2 6.8680264974606144 0.7466346222526674 12.7526219354707956 0.2348580373759409 -0.0533529855272981 0.3641146501086646
43 2 4.1334992587174071 4.0860252852677395 1.184273879752811 0.520835541965481 -0.13827450398801 0.0082799843184478
44 2 5.4696620636057444 3.1322427894696441 3.4006435664634869 0.3314752522303266 -0.515905192341504 0.3621359282320414
45 2 4.2519690065766476 4.019966812977815 5.7445965494884526 -0.1870720068996623 -0.6461545084481418 1.047928894709955
46 2 5.7222830084491784 3.08113026488043 8.4117253448941263 -1.2868803872571171 1.5016172194170162 -1.5902907503966424
47 2 4.1949281244638614 3.9479671970871632 10.3615902919611305 -0.1887121143387189 -0.2480583440115585 0.6820386399651212
48 2 5.563970717811225 3.1126977568618002 13.0374561878970763 0.1276941526438153 0.839995718773965 -0.6241347998099344
49 2 2.8336978269568598 6.3629813295090552 1.2563377545814416 -0.3035373756924165 0.2971396968389841 0.0050601903916089
50 2 4.3338931133866625 5.4823744581836814 3.7345086686908312 -0.8783550524097404 0.6403260720888418 -1.2291449544342053
51 2 2.7898918637958988 6.3193108690091764 5.6859606473603456 -0.0906178000585014 0.5691751311996038 1.1680246627877822
52 2 4.1776940935954539 5.6546072407460928 8.1663885170318871 -0.237600120122067 -0.5598157972920104 -0.2111804806789411
53 2 2.8672864658884404 6.271743622125805 10.4798634710249434 -0.1408309530029872 0.6484404772897552 0.3339980197788489
54 2 4.1450442250203823 5.6977119807361404 12.8661845800259248 -0.1673441806429804 -0.6086135573140936 -0.4046200845116142
ITEM: TIMESTEP energy, energy_weight, force_weight, nsims
2 -3695.7225141507024108 1 1 500
ITEM: NUMBER OF ATOMS
54
ITEM: BOX BOUNDS xy xz yz pp pp pp
-4.1886760555970497 8.3773521111940994 -4.1886760555970497
0.0 7.2549963620968701 0.0
0.0 14.5543843130309584 0.0
ITEM: ATOMS id type x y z fx fy fz
1 2 0.0895589204799316 1.6979085636106168 1.1865054288437722 -0.123309648464754 -0.6407330779010424 -0.4509953500532474
2 2 1.3511655295750629 0.8536954219279388 3.6413686884693722 0.0506389278181459 -0.3852599261711967 -0.0215006026781108
3 2 0.0899585201756355 1.6125999633872644 6.1032500722107148 -0.5239517203886454 0.3645867048598964 -0.875950041438595
4 2 1.2526771894798092 0.8831144321762416 8.2707501125213998 0.9066837368027008 -0.3823175543993574 0.8659487027849092
5 2 -0.0557093915394408 1.5423948145905256 10.7838760279904928 -0.1116805436726972 0.906222480689569 -0.2066468524499264
6 2 1.2511156510462829 0.8900647186911304 13.2022543570201858 0.849739432775835 -0.4974037828404734 0.1409960178996598
7 2 -1.445874427265351 4.0034731320217452 1.0740975524789402 0.322173511059267 0.4660617641967302 0.3551330114241429
8 2 0.0791194831465671 3.1342317038891054 3.4013930890392548 -0.5592830644790734 0.8106859009764836 0.619868823539543
9 2 -1.338117803661878 4.1040353620964059 6.1942921124040167 -0.0105178735094728 -0.1218261212781485 -0.7904986183796866
10 2 -0.0373680168271922 3.273943345332913 8.3392794310593068 0.1364343646336711 -0.3997925790600187 0.4983077831157082
11 2 -1.3610445220521885 4.1513357618783688 10.7358771239645492 -0.3219572811868345 -0.970378732304699 0.8441434242461176
12 2 0.0205404296414369 3.238472217119349 13.2018599332053039 0.0270709001647327 0.1594799438913854 -0.2372679334452742
13 2 -2.8198431092870844 6.5211106755922358 1.1226306024091732 -0.0268389865560121 -0.3096905425260115 0.0258753366607959
14 2 -1.3227847360927596 5.745090872215088 3.8035671135690824 -0.4529283062731606 -0.685590620568753 -0.3231016797150115
15 2 -2.8109878292379468 6.444251969631817 6.1742201609979173 0.6438122324221492 0.0389560869460198 -0.4450067338954629
16 2 -1.2338164189366672 5.6062940858125394 8.6870855529878064 -1.0257976001447138 0.6708785045991248 -1.4069154772732391
17 2 -2.9427179213780236 6.4842349800829694 10.8118408220095522 1.2941432427107103 0.0345597556871346 -0.1154328133020423
18 2 -1.4076091960270496 5.5658743245803892 13.2203541893518715 -0.0998478074193248 0.7747886568275254 -0.0603119364515034
19 2 2.9711498167082052 1.5103618291529592 1.238080345095429 -0.3755745762371535 0.1640382547217718 -0.6186277514893272
20 2 4.1105626924390375 0.8257687644313192 3.5610968926677118 0.376889696091484 -0.3124506230023044 0.4090763225009117
21 2 2.9273915556905936 1.5983199540477494 5.9548113620405436 -0.4210954638167259 -0.1310036781110573 0.2617057656866053
22 2 4.3850952230045568 0.6981998103987528 8.4035428595550617 -1.0314807691105246 0.7096548713539078 -0.0596442206623155
23 2 2.746719715914105 1.7017602411792542 10.6742524053447436 0.0575114896375507 -1.2393059586655135 0.879669400932778
24 2 4.3505118380191252 0.7472755077905208 13.2679819565778363 -1.256598177809767 0.154462433831315 0.5674869441099588
25 2 1.3821403701385977 4.0147575533633511 0.966351445409572 0.4934116291790482 -0.1742236844440209 0.4503703145955976
26 2 2.8164285005665618 3.1755735751588778 3.5001766062486586 -0.5487865311353698 0.3995295550891527 0.4412385234193987
27 2 1.5110527398960746 4.0112533901204577 6.0362489640256758 -0.2168189124297659 0.0566200877734326 -0.1323262541678855
28 2 2.7692723855326498 3.1862993617806019 8.6632003528916908 0.2149692599894817 0.060454632740683 -1.5482174565857346
29 2 1.5124333275239994 3.9921176117157904 10.7536756805409564 -1.3649820515367701 0.3753205511313707 1.1551408590926691
30 2 2.861903699899362 3.11217288745015 13.3672603228538805 0.0058299790218856 0.1426402391056117 -0.1357429946848353
31 2 0.131397511261263 6.3532503737631281 1.2249683002678191 -1.4316155621541431 0.2627828012818723 -0.0357121246386711
32 2 1.3565618009374885 5.56594687454401 3.5378055114515688 0.581963032703971 0.1960449038295316 0.2710535296248057
33 2 0.0356485653063697 6.4075017855596164 6.1100949991531328 0.3790568799139966 0.1917074508593348 -0.0066589030512818
34 2 1.4410616384774704 5.5989324410039202 8.6705605050387914 0.4761021836359212 0.0416462333850932 -0.7417378822596608
35 2 -0.016864028667439 6.5470864645670864 10.7504795377458128 0.1878019434131411 0.0860564039029436 1.0995854656138178
36 2 1.365887888175275 5.694889199387922 13.356859759823788 -0.0512914740919076 -0.6361595975552296 -0.7797205491140882
37 2 5.742693302398199 1.5743197005822966 1.4142844542195696 -0.5528370488646216 0.3882668326612057 -0.8605902642933936
38 2 6.8326772874673526 0.9279111327136448 3.6925622798520266 0.7514833960345474 -0.7410447125378084 0.2524317924420887
39 2 5.6255795953541288 1.7291993629203406 5.9281069777029938 0.204882303562288 -0.4683274213142982 0.2341299006354787
40 2 6.927245445642173 0.7629521039297398 8.448604688826638 0.351929158344023 0.3587407849912917 0.1576529171690252
41 2 5.4607329925832904 1.6904946828281902 11.0887248846190847 0.4286105446030851 0.4130630768432869 -1.0513363792513906
42 2 6.9531968070122306 0.8576457674471006 13.1537737028734796 0.2869951476752567 0.1623199857117051 0.5205185248041144
43 2 4.2488354965779571 4.0070128447468116 1.4093374189915702 -0.5508750391660104 0.6361284871930842 -1.2228981994037431
44 2 5.4364466299453325 3.2830251497789864 3.528227271135163 1.1784461198856471 0.2217757444281312 1.0501546997107252
45 2 4.1977064223053118 3.9680527887827162 6.2704959577901845 -0.575742245827035 0.3752387900143273 -1.8453319566024848
46 2 5.4500627591992617 3.3237800918430654 8.2426805269352883 1.2486727487756049 -1.0833489418990625 1.743391784496055
47 2 4.059587761445238 4.129590361282256 10.9886518489595434 1.2242436582889262 -0.7000224861686408 -0.1642506279377399
48 2 5.6316360020629164 3.269942214839217 13.3944581008196444 -0.4778783024929524 -0.0586759427793421 -0.0820755631004803
49 2 2.621399554741907 6.5328942406835528 0.9813628373900322 1.7338817838759222 -0.4215657187949411 0.4672835529646244
50 2 4.2492895490623832 5.725216535180758 3.7673659934672812 -0.4157989889390701 0.0106988792528646 -0.1934349758449159
51 2 2.9062538208436286 6.4224862550458912 6.1658935977324312 -0.8193847181869556 0.1903565926551017 -0.5441433738627686
52 2 4.217542316634197 5.5825027762423156 8.3124789877852923 -0.0985267740250824 0.6508915110280412 1.2593466883166669
53 2 2.9189065546047712 6.4495901959550493 10.9420734528425516 -1.6227681687034792 0.2775414542395031 -0.523068031837456
54 2 4.0660286886159298 5.7303755630938458 13.1895789437219673 0.6547895622717372 -0.3930791685973747 0.9086364905257976
ITEM: TIMESTEP energy, energy_weight, force_weight, nsims
3 -3693.7822839634551150 1 1 500
ITEM: NUMBER OF ATOMS
54
ITEM: BOX BOUNDS xy xz yz pp pp pp
-4.2015086038852996 8.4030172077705992 -4.2015086038852996
0.0 7.2772229773595339 0.0
0.0 13.738563401947788 0.0
ITEM: ATOMS id type x y z fx fy fz
1 2 0.0377593779739776 1.7258916715910076 1.1351900167761415 0.2654644630767242 -0.9040920636586828 0.262918812699847
2 2 1.3471213006465359 0.725234942922292 3.6241313600646522 0.4985890619271722 0.5427989434193092 -1.0092990809008162
3 2 -0.1310879087429421 1.669780643824077 5.555056221368929 0.794130817437776 -0.0897148282249904 1.8764924552819744
4 2 1.3739853265089179 0.8444977116867486 8.1041930802030748 -0.4413076861253254 -0.0857892661651822 -0.6812403120770084
5 2 -0.0903332752852547 1.7175061275541964 10.2173297601947049 0.067718002415138 -0.4980409024883778 1.0308742456039035
6 2 1.3167078403155912 0.7580428472711218 12.4236688543051504 -0.1550717855526764 0.7820273439006088 0.847265259098763
7 2 -1.2524445057665845 3.9561109054035816 0.9678488191150568 -0.567065025892763 1.0491627676681039 1.950149708652153
8 2 -0.0994060129644844 3.1982623599859546 3.5168730217293054 1.069574764781555 -0.0187140398274296 -1.3539378729751339
9 2 -1.3889687464920939 3.9360017551502442 5.5156086842729168 0.0685636386225463 1.0697832813410588 1.9421612875624076
10 2 -0.0728033209372641 3.2720221089175783 8.2023922098311761 0.7265791654714654 0.148527810864031 -2.1880429346655079
11 2 -1.3368414695454096 4.1273839867872262 10.0954261132728824 -0.948761144380504 -0.1414518746937416 1.9872502296179772
12 2 -0.1863663171425402 3.3184646182367885 12.5791344377615904 1.8489492432555788 -0.4153865838078197 -1.0878447748947269
13 2 -2.7584139228036532 6.4192835071113042 1.0700815909579711 -0.8092234568452162 -0.0591400271072144 0.035797228191317
14 2 -1.4476776866667645 5.5854272785843486 3.336116116906219 0.1746175776242427 0.3324185904014974 0.2533661317481762
15 2 -2.815213277317858 6.561742424116094 5.8334324884445562 0.3109190161651105 -0.2104538866010647 0.0800328207265495
16 2 -1.5896420407325844 5.763594801016744 8.1854676735763175 1.016883067282671 0.135122587214943 -1.0429394096868587
17 2 -2.717978183849001 6.496940936669601 10.4442331256285925 -0.5976822502316466 -0.1376139872908888 -1.2681704611965827
18 2 -1.4086095387626765 5.7078403571757042 12.5157227245235596 -0.234173095187879 -0.5248642053081016 0.7371116942755026
19 2 2.8320693096857856 1.5016556891004376 0.9705979056517866 -0.775083048270968 0.2702459457611788 0.3503096197394428
20 2 4.1392384650179759 0.8388636856576768 3.208585154414958 0.1420368009241623 0.1159478054952435 1.1391581033732656
21 2 2.7427805294394566 1.7038766166398996 5.943689955170548 0.1423854426685361 -0.0529855747214646 -0.5254367902378366
22 2 4.2995024898080185 0.8792071543995628 8.1449389115405708 -0.5063939061692166 -0.6558640267626946 -0.4215749747704553
23 2 2.6818258829160096 1.701466400389798 10.0879097452356756 0.5130841766930748 -0.8614806377157876 2.031292989329994
24 2 4.1567192617153017 0.6862981613819296 12.5207125707511474 0.1832554596625787 0.889519044432201 0.3030596645117037
25 2 1.4477739012137936 4.1266286110421762 1.2537057339630444 -0.0647599469070104 -0.6498779817092198 -0.2862384716769586
26 2 2.9298997569238136 3.2276135834205389 3.3592353713990164 -1.0517048184989479 -0.224732514384104 0.5974007143097516
27 2 1.5078916072233464 4.0990188270660744 5.8269575035132188 -0.4016553441322817 -0.2896372144637417 -0.5025501052264518
28 2 2.8328381857602968 3.2954256580127663 8.2384573126176299 -0.237588550152674 0.1357982734274905 -2.0460657833613274
29 2 1.4678487093231574 4.0236398960219892 10.3265362268204477 -1.019088817669827 0.7675198878340204 0.6522899346620008
30 2 2.7399239237396742 3.133036610439881 12.6036948675552516 0.0672333492527894 0.3651760019676434 -0.1751156005290009
31 2 -0.0720936861340675 6.4298805992109349 1.2476566444971669 0.1330294511965451 0.0100651020405626 -1.0843488443650431
32 2 1.2514037920854022 5.6814480526037148 3.36878092525069 0.4996990076576012 -0.2916976974574083 1.0662323291791509
33 2 -0.084949462160236 6.5484498486256496 5.7244760636727286 -0.1477299971967803 -0.4260155290234648 -0.03925793459196
34 2 1.431375833283689 5.647384099568992 7.9206692287108354 -0.5732750141315988 0.3166196686402261 0.4012557945225789
35 2 0.0229549422573271 6.4597528718106992 10.4730360238007752 0.542099088826252 -0.1847263884380674 -1.0818373896754827
36 2 1.4093758939320251 5.6645554349063688 12.7952846296207756 -0.0739976675807625 -0.135054967171602 -0.5206753621669966
37 2 5.5068064072853202 1.7369159366794098 1.0229116073737234 0.492463920130551 -0.9940868851429824 1.0157250419016537
38 2 6.9321526555715734 0.6849300434621862 3.6519519509535958 -0.3613877368779647 0.5923796047036478 -1.9020464039040776
39 2 5.5434986020739104 1.5246182384831978 5.8779564247175884 -0.1708866481606668 0.4744325084973048 -0.479356173250077
40 2 7.0406696399435829 0.826439282868431 8.0663666935884919 -0.0441918837619703 0.0954139380375203 -0.7706597204168326
41 2 5.5201390545380288 1.618807335479162 10.2964789978096647 0.1946932742940055 0.5636570271304656 0.5511935989899626
42 2 6.93781544886789 0.8995135173955868 12.6054025709861168 0.2116216821784585 -0.5897470510011082 -0.2298613532607777
43 2 4.1174990191997525 3.9539604860137718 1.1839042148867682 0.456050398236237 1.0116022761413035 -0.4210908358289687
44 2 5.615640185406063 3.2680138145016482 3.5159621549757568 0.0288213079786687 -1.0994689945885954 -1.4805614177844562
45 2 4.3237796468229881 4.0116222899971774 5.5474972637851776 -0.6824559301945598 -0.3268038128103205 1.6152908831504702
46 2 5.5850649669938682 3.2918438088633098 7.9673473717252934 0.0832338455919288 -0.0928438621697025 -0.0736798790881031
47 2 4.0370775228619236 4.1270761602552844 10.3108756383985636 1.573683730550882 -0.3530589015776357 0.3557670457468758
48 2 5.7265179974625956 3.2476317683866598 12.7992330927424938 -1.8568019100377808 0.5905695472697304 -1.9565885251745388
49 2 2.7244258189525238 6.568558998878987 1.2761311910040438 0.7180567260166278 0.077450146447615 -0.1388506884637783
50 2 4.3530292892706566 5.6058078692547416 3.6456212209379788 -0.7991028189515676 0.665273754314755 -1.4570311853643932
51 2 2.7635351416409288 6.5408647991163482 5.6562077682721102 0.0198185862388087 -0.933116745988236 0.9422426236245232
52 2 4.1860159610593328 5.5660436674618544 7.8356110349766954 -0.2554770083863098 0.4430753203381352 0.3823000708900524
53 2 2.8407034098667698 6.5048221691540808 10.0969978049260636 -0.2982113331152011 0.0332515778144398 0.588104629568173
54 2 4.0609752836499631 5.7171501085306408 12.3693506961828686 0.2298217582544107 -0.2313788190242691 1.2292593685759801
ITEM: TIMESTEP energy, energy_weight, force_weight, nsims
4 -3693.3057435953207646 1 1 500
ITEM: NUMBER OF ATOMS
54
ITEM: BOX BOUNDS xy xz yz pp pp pp
-4.2015086038852996 8.4030172077705992 -4.2015086038852996
0.0 7.2772229773595339 0.0
0.0 13.7725536065532186 0.0
ITEM: ATOMS id type x y z fx fy fz
1 2 0.1169548741011927 1.6045810922807222 1.3069423427277858 -0.9462635736542152 -0.0248805764034342 -2.3780922803556197
2 2 1.362709737868671 0.8648571984105074 3.2319252740389257 0.7855001344915068 -1.2316219563260178 1.8170577796208864
3 2 -0.0966746122210988 1.5433105134228434 5.598684898366031 0.3942487639477852 0.6170928022165308 0.424762887003856
4 2 1.3707102505521891 0.903103371490318 7.8072887806076432 0.4836491461157186 -0.2580681673094658 1.042533175205951
5 2 -0.0363123784107995 1.508199368001679 10.3911410356687633 0.6761063309917158 0.4595077622012776 -0.7191237343050876
6 2 1.3887973249410553 0.765731961069 12.7217780063965994 -0.3400180034092096 0.3404198670127909 -0.3730482091425979
7 2 -1.4713620108177262 4.089130536484439 1.3128824450982921 0.263929256693497 -0.2107289947621856 -0.7138285449795866
8 2 0.0428969826948085 3.1150800627432469 3.3039571066565601 -0.7576766720953712 0.8788096236516674 1.7606377237627364
9 2 -1.297400647828157 4.0704768308265731 5.8711872667699332 0.0212566048791353 0.0190739944307654 -0.8076617680876008
10 2 0.1231844509081735 3.1733109455634829 8.0481693659308977 -0.2540698429976977 0.262145167413106 0.2394073493412438
11 2 -1.597376597921477 4.137195866527601 10.1526596291837716 0.9548420631830008 -1.8390684893940104 0.8028386335133316
12 2 -0.0633734550267038 3.2199666775159295 12.4202362087132823 0.013484156551391 0.0273565498535228 1.2463397287251268
13 2 -2.794741846796287 6.3982450554837582 0.9245832004812128 0.0577981677680646 0.2576529339634749 1.6295000911171518
14 2 -1.3350797769878005 5.7635227565092686 3.507722037265515 -1.0378817903995594 -0.8588506551175576 0.1577362209486543
15 2 -2.7543548453414402 6.5287569555266174 5.8420335252955812 0.2945894184743497 -0.4567332835408512 -1.1541234731173835
16 2 -1.2778052318504969 5.6010813129309468 8.1453581449662629 0.0726748344135033 0.4789699933827838 -1.0941079849927702
17 2 -2.5966785297005304 6.3458330401562187 10.2858484860913056 -2.3157807960825858 1.4070340051819088 0.1633057471039834
18 2 -1.2860498521839006 5.6697047978851486 12.5742216215667106 -0.3908567060322069 -0.5845187103876554 0.9902885927464964
19 2 2.9471557729108304 1.5593647950331964 1.3542689686859846 -0.592580407950223 0.5847128287630258 -1.758683684487485
20 2 4.3086479135860954 0.7007383549359042 3.3011213378689708 0.3847734732358315 1.2663835437014517 1.3184059827485617
21 2 2.7502987089352492 1.6329222371660488 5.573660168462924 0.1506242893180313 -0.0119083267200729 -0.3691293319539945