ITEM: TIMESTEP energy, energy_weight, force_weight, nsims
0 -3726.8943863286757820 1 1 20
ITEM: NUMBER OF ATOMS
55
ITEM: BOX BOUNDS pp pp pp
0.0 11.9999937223982994
0.0 11.9999937223982994
0.0 11.9999937223982994
ITEM: ATOMS id type x y z fx fy fz
1 2 5.1527157044405172 10.4518325322936666 0.5675313031052218 -0.0250261009073543 0.0802608776788059 -0.0408916142702427
2 2 11.3241648759471776 0.9970290784204406 11.1930025445626207 0.0193192777818957 -0.034142465457696 -0.172882853546595
3 2 7.4969504780921916 7.3736133426140098 5.303280825674821 -0.0963477631227459 0.3738755905094084 0.1164301446637135
4 2 11.7544270508625122 1.4515048406688316 4.283210559308003 -0.1060068877928318 -0.1105214898499559 -0.242216023688987
5 2 7.9822998241895692 1.3331537025823059 5.0801769423879923 -0.0937658601751042 0.1875795428903658 0.017466797126871
6 2 10.0888639221747969 8.237989690429572 11.8936413780348006 2.5222533276603252e-04 0.3209352672237917 -0.0804853350850288
7 2 10.2659550295324618 3.3190734636806565 6.1974579579005855 0.0621682737629925 -0.2345189087175123 0.299843470130898
8 2 3.6668404817519932 9.1101012341985896 10.5003341069208568 -0.1173236034112792 0.157984846735387 -0.0389311472342172
9 2 2.7748341483906098 5.0077749802639016 5.9987224618658308 0.09970099736325 0.3995208133345003 -0.0287732283280802
10 2 0.7799191919979496 2.8494813093401606 1.4406832463299726 -0.0593452012311158 -0.1536589637345832 0.0946107250512195
11 2 6.1210359978794919 4.3573333205318861 7.9235274549353792 -0.0265785336894555 0.0201677422040444 0.254948646450699
12 2 2.1446976780362639 9.6122649714997906 2.0549317249958632 0.1351876361539743 0.1548838378276488 -0.1047617019757208
13 2 4.4331924808473984 4.5853968012241816 10.3280693970383393 -0.1395708547808809 0.0491512868646452 0.2748474511439654
14 2 10.2424458418309108 8.1354485440723057 5.0297865687488974 0.0931171705578068 -0.08381620071804 -0.0062734945152815
15 2 11.6538551034750918 6.2319915398349038 6.9148511826079782 -0.0040906269564807 -0.0444281682480172 0.1095791801205089
16 2 3.7258408508869088 0.3359014242786288 10.6122712483627596 0.0070476540228845 -0.1741666059283491 0.0704953092903049
17 2 0.0375203803718228 10.0469359441087356 6.6501013211075666 -0.0586810849879612 -0.1746090929800212 0.1853095148954715
18 2 1.6734087245834208 6.1837347650796515 11.2519321137345738 0.1563318837747827 -0.1349341252690536 -0.1863785800673789
19 2 4.2231877907079394 6.7189344850986156 8.4231987935404398 -0.1888337275725602 -0.0014531881557529 -0.0386568104043892
20 2 7.0124111315710778 5.9961016632368586 10.9574450677906832 0.1375602512108194 0.0158228330313501 -0.1021368615861097
21 2 9.0439296688151671 7.7347603536858198 8.1925925141783669 0.0521376245201778 0.0846983466066437 0.0116465883013616
22 2 7.1404102646104111 0.8914039336765186 1.3975468688960675 -0.1380207359926583 0.1047730148346828 -0.1881963508142248
23 2 2.9044640805768176 0.9073963253103588 2.6535550118358194 -0.1934966823483448 0.0816497882268202 0.2313492513247094
24 2 9.2653487529833765 4.0712498701917932 1.1313798081370397 0.0722086932021834 0.2061480582138753 0.1270629465358229
25 2 4.6101743882621902 5.784384573993214 1.1298414089418285 0.0583039039857514 -0.1444659802758172 0.1972900896466425
26 2 0.0951299502343125 3.8892111654223834 9.0171132828437237 -0.1432621892380898 -0.1278928990069429 -0.1102466387992659
27 2 6.8708148056448932 10.1984982648213727 7.1508634591419922 -0.0349927296528614 -0.0766014249150353 -0.027372233589811
28 2 11.1330745759129624 6.0302476453739438 2.8592217042446314 -0.0600681957629589 0.1056783006620724 -0.0571016556106098
29 2 10.2531702362206154 9.8304764573459984 2.5047634896736862 -0.1681921308442672 -0.1267166187853276 -0.0667222137160526
30 2 4.0960898571971578 0.5713725010957616 5.4327919579231772 0.047419133891307 -0.0845391952498831 0.099476539957027
31 2 8.3897212110536916 1.2148457644731812 10.1374602967523924 0.3553281582412371 -0.1299752363872406 0.0188927315769427
32 2 4.8545218604357814 9.530338614358234 3.5426405467251706 -0.0086340253818717 0.0996966264859238 -0.1716752058524032
33 2 2.3432855741482333 7.9932786184461912 4.4637684648520698 0.146138226518743 -0.0561632025376271 -0.1351043323743452
34 2 2.10944289647923 1.1333430071100239 8.2862740651703853 -0.2425492388075036 -0.1467771459396641 0.0493369205957941
35 2 7.2414574117492379 9.4028878810320116 10.4566793297581438 0.0857985221406966 -0.0947775897209088 -0.0303781116380961
36 2 7.3855077363916522 4.1536214271004521 3.566480934253459 -0.1679602172355466 -0.072345475951451 -0.1757455210848386
37 2 6.7428384725936326 7.5184832668276638 2.5051702894608754 -0.1891042077459239 -0.1681533071691931 0.0093603623493172
38 2 11.0575742154097494 0.9081319249255416 7.866471084783492 0.183309967073941 0.026177698527598 0.1966324011642618
39 2 4.1078786510300418 10.7834571588096324 8.083973371000706 0.0567674120503693 0.3175555506088993 -0.0789676122111064
40 2 0.4283409759203795 10.3121046053900596 11.3023812873429073 -0.0494459354185186 -0.2070973099249581 0.1006083400740872
41 2 10.5223048954271938 5.7397625973364762 10.580708864874108 -0.222718825488871 0.0186939852138152 0.0480783650362735
42 2 4.4881188521135602 3.2688594899492811 3.6085013122711818 0.088084748092741 0.0178750884912262 -0.1811067877910948
43 2 5.3191028173978037 3.008850825968588 0.5813576958721692 -0.0028480122436792 -0.1797531013721211 0.2362204655495669
44 2 1.9024742047515376 5.8518605386942594 2.142646879109106 0.0408432775092233 0.0741745595572589 -0.0159161641177864
45 2 9.9424027987935518 10.4624021267643564 9.3322895179643997 0.0538875181132518 0.0523757087792413 0.0758367784933776
46 2 7.86299828660023 10.6502164285123566 4.1070890514431078 -0.1111071874116695 -0.2097838568179981 -0.0055127047500882
47 2 1.4708908305273658 8.0731469766643578 8.8343137784723158 0.0315986148538355 -0.0044734643881715 0.0094675773990251
48 2 6.7568208652789714 1.1607617927663321 7.7865691265829034 -0.0175138483357356 -0.0236405327949423 -0.2340237140274946
49 2 9.9391232005092202 1.3450864963398588 1.724915097638699 0.2575701444047076 -0.062283202125629 0.0448860819255466
50 2 5.034495366285566 6.0089452565179418 4.4791284568167394 0.0401701624009853 0.0619165626510883 -0.1351043323743452
51 2 8.8413433747948958 4.1104286496960514 8.7685298128861292 0.1983491275117427 0.0058451485373119 0.023714837709488
52 2 9.0202380812090404 11.0701310088408658 0.1219319362132891 0.0845047424521352 0.0103026720787642 -0.0929505629985485
53 2 1.9841773620098584 2.5989334404102068 10.8641151166147322 0.0016653042612901 0.1325095739051558 -0.0972620478152188
54 2 4.5527700182923532 8.5995543012829216 6.2344755385354409 0.1151602762452309 -0.1562568075289441 -0.001811857206934
55 2 1.8414314366850698 10.9776614572148094 4.6249427805363458 -0.0144462637840215 0.0576922382705115 -0.0558050477073079
ITEM: TIMESTEP energy, energy_weight, force_weight, nsims
1 -3657.560442185532402 1 1 20
ITEM: NUMBER OF ATOMS
54
ITEM: BOX BOUNDS pp pp pp
0.0 11.9999937223982994
0.0 11.9999937223982994
0.0 11.9999937223982994
ITEM: ATOMS id type x y z fx fy fz
1 2 3.7818112216069188 1.9982461546499982 8.6114906950385902 0.0625374843418426 0.0158691129089218 -0.007342045466327
2 2 5.3468624028758276 8.624035488475986 3.4777445806744406 0.140826839236092 0.0714491889891448 0.3571734398041951
3 2 0.8199067710790974 2.1495780754831633 3.0799699887637542 -0.1573919500816067 -0.3844921944243676 0.0693681371610018
4 2 9.7694720892594448 11.0576606153645471 3.652666089167096 0.0937352640338206 0.1088646702328873 0.1622397672572474
5 2 10.9872278522103084 11.5437443610777404 7.1675950503891315 0.0793838739988212 -0.1363950267377351 -0.150390061715432
6 2 6.621918135851141 2.7344265695291782 8.3157736497381567 -0.0659933056442975 -0.2757547938548026 0.2629946602769785
7 2 8.0787617737270683 10.2323910470909123 11.4732587979511146 -0.0149743686092013 0.0583123886299729 -0.1119515380669229
8 2 1.7682386749746732 11.8558881977847648 5.2114172737317448 -0.1213774635761335 0.1024963019685836 0.021280516149214
9 2 4.9023598354101222 6.515062991750674 8.0421737928674748 -0.381141274177742 0.1210283076108977 0.3077724987110934
10 2 9.6867573325303234 0.5878424924797534 10.5991120552467778 -0.0412405131250475 0.1125076679290768 0.2220048298221113
11 2 1.8880082123191864 3.2294239105793632 5.693596221487665 -0.2813083791634125 -0.191639573705563 0.0144678610602216
12 2 10.1034043145682286 5.8957289157452308 4.2012434021877896 -0.0143241363293183 0.0925921510577984 0.0670063207422569
13 2 4.5795876042631686 9.5423338080831446 6.3288158891828195 -0.1208383030024226 -0.0631671477872494 0.0299441092306455
14 2 8.4324711886897355 2.4436511216436281 3.6943540673587072 -0.0159920116949179 0.2421843991059797 -0.0181555959713972
15 2 4.3430413280085088 11.3755608490602072 2.9260316692940842 0.12877864444158 -0.0854138849359892 0.0391694886037118
16 2 5.0812389418324244 11.4257508228041403 9.4571170526629036 -0.0617831223374231 0.088617480905678 -0.2198885538649276
17 2 6.3574406742082275 4.7304599253367662 3.1822963352333891 0.045029292435588 -0.2383858495990629 -0.0386897205395513
18 2 8.1677237271880685 3.6636820834042574 11.3701788518757141 0.0438021043486438 0.0387524554847041 0.0160429195602468
19 2 2.0585509231025387 9.9828523776330122 11.6891722849994846 -0.0742393513858594 0.2407479231282388 0.0014912404995341
20 2 9.9608923891210246 4.5179652364999088 1.6735731244974178 -0.1800816885028805 -0.0714152504122589 -0.2264201872528871
21 2 0.4440945676791441 6.5350069813172996 9.592340181923122 -0.0626282443239695 -0.1517445194656985 -0.0609583120749222
22 2 11.2024045396441157 8.4962343553330726 5.0066169808696905 -6.9625504702386962e-04 0.0101671748816514 -0.0458253063298221
23 2 10.7729295643169714 1.6660215284479124 5.2261772660102954 0.1760980194856767 -0.2888298877105455 -0.0999483375978279
24 2 5.4561103457245422 2.4971314936662408 1.131987007819393 0.3502111464443873 0.1838447567703256 0.0014423895176528
25 2 9.2019599861441766 6.9088367857543132 7.5348188582819652 0.2949624857096642 0.0529940593656861 -0.2425366403963869
26 2 2.0122969472995544 7.3446861577467973 3.84825638684721 -0.1137500255314473 0.0173307857088962 0.0173891497767228
27 2 2.1046632989795988 11.0457458215975795 8.5480227282408254 0.0490052481398632 -0.1865775835409374 -0.1933347027768437
28 2 11.8472218023184458 3.598621717439531 8.3915260101095406 0.0391707741558665 0.3694820874652636 -0.1665844193195108
29 2 5.7194202079782662 7.8973374686362456 11.0367002263296357 0.0152574471936819 -0.1275080046918045 0.0791882129608651
30 2 6.7416672732063266 0.2141278879824752 6.4269950378219934 -0.1519000712764258 -0.0128295533941817 0.172551695311526
31 2 2.4421715224176568 4.3006969501602823 9.6593445468708784 -0.0188431092637686 0.1827150135367131 0.0695694546284389
32 2 9.5098402250816338 3.9811275173378378 6.4219850404428911 0.2278720898564853 0.2704760595968828 0.0070929054587325
33 2 2.6925801914204306 5.3347892091917224 1.0825878336617685 -0.0755812107250092 0.1540991367923768 -0.1827456096779966
34 2 10.7703543656641436 8.9674873088047474 11.5907555364846058 -0.0081624848515018 -0.0315798457923759 -0.2355761468095958
35 2 1.2045485698599912 0.9884634829013928 0.1139207404042161 -0.3641395898204671 -0.0814196743911163 0.3224123666496234
36 2 8.1068381590393628 8.485500360948386 4.7509811146014398 0.0293573832272081 0.0270457033424992 -0.0227303618693646
37 2 8.4306519896414205 9.9448711975022502 8.0923841666007341 0.1726460548396862 0.0248083283723361 -0.0586335195582346
38 2 9.9437731980766504 1.1018490235855898 1.5746907762261112 0.1143866309584898 0.2078290462114536 0.0022402031849036
39 2 4.799313489317143 6.154160780550801 5.1806216898419546 -0.0717389524448302 0.3905867400797051 -0.1910582470211756
40 2 5.1894800852078289 2.0245057409127223 4.1649254211869513 0.2491127538889015 -0.0860306928598482 -0.2327039661854069
41 2 7.4879408828054164 6.6835897035886634 1.2938033231678175 0.0041127384535428 -0.065401437432241 -0.0561948271206344
42 2 1.9458361820674238 7.8293011042283638 7.513224869578508 0.2244628055420331 0.1501257521924111 0.0490769819500994
43 2 5.2943468303484958 4.537052426514756 10.4607725276168538 -0.0041075962449237 -0.0227807555138316 -0.1271040842047755
44 2 7.3151493731984854 10.657603624647864 2.1908940538693806 -0.1967907811897295 -0.0630398781239271 0.096588161375688
45 2 9.7262241118839192 6.2441295334851104 10.80750034623183 0.1242229047155032 -0.2332678093604894 0.2475623779902479
46 2 1.312958913146882 10.4829941159919874 2.5866838468183824 0.1576881412980659 0.1132540595101367 0.0560297622239618
47 2 11.3239956760356915 3.0837631867794042 11.1550369644236955 -0.2512043472447135 -0.1595419075052454 0.134931811275175
48 2 11.7033754775693116 6.992638741914682 1.5096904102299962 -0.0136317379387587 -0.1413901681903126 0.1205066305464917
49 2 2.8841804911878476 7.3208001702423635 10.8858519052434844 -0.0010554383190668 -0.1861659497409798 -0.2312803457292137
50 2 0.3655546087660472 5.7345114000835542 6.2176935473146662 -0.0502648321411076 -0.0240593656869666 0.0437123728082408
51 2 6.9096983853035808 1.0580622464919305 11.0672570103443526 -0.142402926177841 -0.01285063644952 0.071481842013876
52 2 9.4042486803201353 8.6505062746282242 2.1482532761762103 -0.0274239127864328 -0.1630023567954574 -0.0984622393069129
53 2 5.0601429528684481 10.5794860655137964 0.1986178960962755 0.2035574135115812 0.0105687813748018 -0.0585728414965295
54 2 11.4201300257445695 9.1024680381917715 8.5846419090840964 0.058788814258531 0.0259342149494844 0.0143549895810327
ITEM: TIMESTEP energy, energy_weight, force_weight, nsims
2 -3795.4445718000428064 1 1 20
ITEM: NUMBER OF ATOMS
56
ITEM: BOX BOUNDS pp pp pp
0.0 11.9999937223982994
0.0 11.9999937223982994
0.0 11.9999937223982994
ITEM: ATOMS id type x y z fx fy fz
1 2 6.7386432747882826 3.836463993016209 8.3631592249491629 0.2997866487256572 -0.1357669059549141 -0.0181756505850116
2 2 1.6721211252570076 11.3215908772937244 5.4426979527410167 -0.0238577911090986 0.1320550026632289 0.0092932565268382
3 2 6.4289990367736332 8.0934689660332388 0.0095087950256284 -0.1130990219202714 0.0844939438140352 0.1810070289438845
4 2 3.5659985345058188 3.8249403990445906 10.9476314729245078 -0.2450820336628331 -0.1751048018909008 0.3108002311460097
5 2 5.6993298184882272 3.5346353509129584 3.514118961645774 -0.130393555058403 0.0886161953535233 -0.0318572679473754
6 2 2.2408020277608349 0.9445699058636042 11.6097299265584618 0.1617664269538608 0.1391257966248993 0.1424803164175582
7 2 9.5260726165899198 11.5532543561027392 10.2064710606505322 -0.0997254228541907 0.1294692430591228 -0.298104889396786
8 2 8.8399273755356536 1.6610859310298898 6.7707084580139032 -0.0468756024402699 0.0413410433035506 0.1753855664815028
9 2 2.5799938503181458 10.14809349118981 7.93540504872181 0.0981948444587205 -0.1210208514084 -0.2431092253261218
10 2 10.3657445773291794 3.4420781993327281 1.2677597367920963 0.1425944734489018 -0.073517899516602 0.1430359320588501
11 2 7.4204193181282259 0.8568619517465952 2.814401727691474 -0.1526714025692883 -0.0657415945323934 0.0591647097085859
12 2 3.1426015559990672 9.4184938728679928 11.3931216398735664 0.1014753164472647 -0.0577770847127263 -0.2412631724318709
13 2 5.6103882650165558 9.0360432729408071 6.0215524499226936 0.1138646967836529 -0.1863844936072908 0.0366202386808012
14 2 11.0483198202510362 6.1577691786631252 5.830566549833864 0.1625128185349207 -0.1188827210645852 -0.0302153607353021
15 2 0.1322615308095296 3.7439428414171464 9.9574291909327392 0.1265194150847858 0.0525865393326237 0.0431287321299749
16 2 3.440917799939772 2.1612888693568517 5.0508585577254284 -0.0783173799312234 0.0393175842119413 -0.0194421765678918
17 2 0.3782074021469438 4.3526821229650841 3.7631044313930722 0.044777324213253 -0.0146830624909303 -0.1149263057530626
18 2 11.6507963050752538 8.576867113151355 4.188225808997732 -0.1692830504028057 0.0247034273165068 -0.0600959636895019
19 2 4.5616344136550886 8.719675438443499 3.0622579980294935 -0.0319171746777877 -0.0904337089899382 0.0981832744893276
20 2 8.4206355948813343 9.3686302989533115 7.779891130076389 0.0619003646939382 0.1247954896452381 0.0337241467865336
21 2 5.622918658461484 1.474038428880751 0.1817075049426718 -0.1067597071346656 -0.0964907165223563 0.0075374493938522
22 2 3.5850521245382426 5.1180513225746252 7.2805797912830004 0.0542518435939138 -0.0494371936638662 -0.11118817719742
23 2 7.0250279249708063 6.3087494996802249 5.017176975345401 -0.0504381245715707 -0.0424959833593967 -0.0967542547140844
24 2 1.186784979152725 5.7878813721639206 0.5689209023782756 0.1832624016442145 -0.1296615616614766 -0.0663146936829902
25 2 4.680833951297788 0.2938834462596511 7.7055547689642482 -0.1951501595298111 0.0796271004665038 0.057633102871392
26 2 9.4545646539981512 7.0732858997254313 9.9273488066688032 -0.0486594346102299 -0.0573307410045899 -0.1056088808457147
27 2 10.0826347254335005 11.4463608120223608 2.4827039012138012 0.0095100006201325 0.0914922326341765 0.0511678039746187
28 2 7.9420746452327186 4.4804988560998372 11.1017005923257521 0.0937136667576204 0.1703258903107558 -0.0523379135458911
29 2 0.7924387854485276 10.3342169938223236 0.835366362991663 -0.088516436506313 -0.0695866810273129 -0.0861733891490278
30 2 5.638263050434314 10.5680548714938354 10.2103194586373061 -0.0288557607764165 0.0606304962754556 0.0625727084708834
31 2 9.3581015044612794 7.4275305144081179 1.9790497646922776 -0.0570260651439092 0.1404961952218849 0.0606780617051821
32 2 0.6955316361439278 7.9258698537099912 8.1887969161639713 -0.0425425203473994 0.1185276515594375 0.0376021434166152
33 2 4.8074338850690906 7.3210737700992343 9.1782923985254907 -0.1440579460218929 0.1433256955145355 0.0643534553156719
34 2 11.6594363005553792 1.6855635182248382 7.9216242559310066 -0.1250281745852516 -0.2239164458762555 -0.1172567546992311
35 2 3.5466977446027134 5.6388834501097628 4.3439041275571491 0.0110529203162885 -0.1034036446794209 0.2297615944135675
36 2 2.5431418695966604 2.9239076704052192 1.9670905709485356 0.0614928446608759 0.1367945763474379 0.0108114936216225
37 2 8.8208029855402668 10.9663682631226606 5.1483393067299588 -0.0559027496710705 0.101322335740847 -0.023126311933034
38 2 4.0252370942626294 11.8295518115622152 3.2384563058542124 -0.0417776168153108 0.074314427631698 0.1340221545704591
39 2 8.6754314615890174 3.937358740234762 3.9444567365215608 -0.1072379325362403 0.0752747350913118 -0.0882269301610587
40 2 0.0363311809939331 1.4990140158151786 3.8130004052908042 0.1638490214445895 -0.1356375794081442 -0.0877610460601697
41 2 4.2393913822312941 5.8451849421864894 1.5691275791364074 -0.2320825302737906 -0.0693838208972901 -0.0030670703308522
42 2 10.0197595583256192 4.0453082837627123 7.8656394852185292 -0.0288701589605499 0.2283431161659933 -0.0498552552245977
43 2 7.7124295653678098 11.2064785375128722 0.4127709840655678 -0.1226578735222852 -0.0813235150899394 0.0687014498135377
44 2 11.3713944512397927 10.706121999266264 7.5747512373919888 -0.0620384329953606 0.0933526837125608 0.0461364099512767
45 2 7.3120893747992737 6.6207781364475142 7.9936770182377756 0.0200659264733866 0.0965002296083016 -0.1204647215462462
46 2 2.023434141473313 7.8103231141563906 5.6370210510840462 0.0863374256039765 0.0744118724850296 0.0172515956961623
47 2 11.7503458529975244 8.0340185971337341 11.3622960559994706 0.147372356587323 -0.2143678786914799 -0.0264263243143306
48 2 11.4008244358439743 0.804648779061068 0.1046411452586854 -0.0905270400763746 0.028157705956376 0.1831240762323611
49 2 7.3615221489393212 9.3904474875400048 2.9520224556974264 0.0465398162174437 -0.0121171003900077 -0.0677290581636691
50 2 2.347976371694319 2.4658139100495254 8.481617162979818 0.3330338556627707 -0.0060055854462273 0.0041880718098123
51 2 6.2645583227981208 1.4859760226357928 5.5073431189229486 0.0589541362656345 -0.0231314541416531 -0.0910476886990568
52 2 7.0841278940536192 1.2104573667689 9.6688173419153376 -0.0285675399833169 -0.1102304408421158 -0.0399410770070052
53 2 7.0632599049703675 5.6737614318639126 1.9666909711575796 0.0550540281384908 0.005917653678841 -0.0429682952210595
54 2 1.8872762127021202 7.5775508359274256 2.7158661792387448 0.2950537599126529 -0.0619417594733218 -0.0316670062284693
55 2 2.2251132359681716 6.0031144595682289 9.6775857373282968 -0.1336670850653115 0.0216759519920215 0.0984218729692531
56 2 0.9162679206693278 4.1701274184656114 6.6683137115800514 -0.0513513808223199 -0.0712190751534409 -0.0016822735497331
ITEM: TIMESTEP energy, energy_weight, force_weight, nsims
3 -3587.9073878930727376 1 1 20
ITEM: NUMBER OF ATOMS
53
ITEM: BOX BOUNDS pp pp pp
0.0 11.9999937223982994
0.0 11.9999937223982994
0.0 11.9999937223982994
ITEM: ATOMS id type x y z fx fy fz
1 2 6.6749785080934708 2.9569112531399316 9.3898762878388151 -0.0544935273990107 -0.0017218685561 0.1835387953574902
2 2 3.7693960281017258 7.7353123533970508 3.2396179052465408 0.0596781592392014 0.0798644133942745 0.032067070059034
3 2 2.1906804539811216 9.4439926595287176 9.2196587768853409 -0.1649273425920113 -0.0716870161377774 0.0812620656969414
4 2 11.6671474965213928 2.4347579262959589 10.0247191557310877 -0.1494282115932325 -0.115742888481773 0.037339633666611
5 2 10.8911475024731796 11.7620770468605418 8.3747632188787229 0.1275200888820594 -0.0457571720656193 -0.0846356116614909
6 2 5.7204378074459258 10.6375096351597076 6.6812329048215844 -0.0561583174394389 -0.0791205929175241 -0.0397415593125848
7 2 6.2494959306777665 10.1130307095323335 11.881331784474364 0.451759482254043 0.0113617099438644 -0.1062213178922475
8 2 4.6451363699723976 5.878477724769911 6.5819965567354668 0.0309360412732666 -0.095382056344082 -0.1117175675747547
9 2 10.9371962783835102 3.840543990881825 5.0108985786298419 -0.0055047343267286 0.1193802297484816 -0.1131365600431907
10 2 8.4506043792036518 6.4935230030189698 5.2862048346078483 0.0794738626496552 -0.2968098241560699 -0.0739935538138672
11 2 11.2396453201622073 4.9906677892132514 11.5396211632347222 -0.118020115568734 -0.0075585324491904 -0.1040155675050918
12 2 2.3407547754721794 7.189799838773058 0.3105850375224851 0.1870192992613166 -0.1532334459713541 0.0971365779249132
13 2 0.6612668540689918 6.3580406738943474 8.6032466993513026 -0.2484044146516228 0.1398372211873494 0.0340367930705738
14 2 6.3892838575499846 9.1259148259259675 2.786162142464554 -0.0585934103310058 0.0401963876649427 -0.3753223509043875
15 2 2.4615335122887464 1.833511440828287 4.7874658955150196 -0.0261244766683904 -0.0797736534121477 0.1515241758263708
16 2 9.8501108470745874 8.339717237212458 10.5005729067959326 -0.0810628051129519 -0.0194887135558945 -0.0384143552679994
17 2 2.8988504835134798 2.3414495751087064 7.972535429297654 -0.0771794091638202 -0.3211545824213956 -0.2093179727171092
18 2 3.6199373062886262 11.1704197563764378 2.7400785665724278 -0.2390561364925604 -0.0807740700989904 -0.0127449640623978
19 2 6.977377149898535 3.2572158960404378 1.1418438026629709 -0.0998439507628605 0.1139138048759651 0.159712371720968
20 2 8.4312615893225189 11.7652510452001168 9.9343004030321894 0.0398253773130758 -0.1154538963573806 0.2919270399618194
21 2 7.7047531693835918 0.4053837879300594 1.5759843755493862 0.2318223345176651 -0.0184561580651826 -0.020641082507431
22 2 10.1630922833434365 5.0016717834566906 2.3006423964563188 -0.17196265531421 -0.1429767966597307 0.1191375175016608
23 2 3.4925981729040246 2.1830448579755602 1.8118046521838406 -0.1703125205683462 0.0782759851518397 -0.1573526121856707
24 2 9.494141833293993 11.5045871815621794 5.2274444653473813 0.152000087234067 0.1299250998532046 0.1884457479322503
25 2 4.1534402271952438 4.277134962486354 11.2957524908106564 0.2844073311877031 -0.0187423219748346 0.232467938809791
26 2 0.5757596988006706 10.7870823569131674 3.8653155779229712 0.2166903572142888 -0.0864742083532441 0.1683908772073948
27 2 7.4473089040613747 1.5594447842018042 5.6076390664547536 -0.083143342720233 0.0034254822716023 -0.1540664837676456
28 2 4.1526434276120767 1.2556601431218022 10.3668365767579207 0.0966817495725553 0.5103503214807392 0.0283307412764081
29 2 8.1784277215884469 6.670584110392329 8.3448784345124629 0.0777352819155431 0.1455728406810749 0.1690940742360544
30 2 11.9699565381117648 1.5197572049637162 1.0364790577828251 -0.0975556679273685 0.1839296032125405 -0.1345988532670893
31 2 4.7314283248301638 6.997399139424357 10.1531118885645153 0.0225254448558941 0.0234664690331863 0.0063197743928533
32 2 11.9461149505841018 7.9612290352124102 5.220902068769929 0.1001365424332864 0.0935642855972361 0.2679075263916507
33 2 8.1221033510536263 6.0962968108213955 11.2518721137659608 0.075778414425551 -0.061385372500737 0.0593503434397349
34 2 9.03999247087485 9.566836595264908 1.4601628361395418 -0.1401233850970014 -0.0017907741515957 -0.2441726340685482
35 2 6.1198827984827702 4.5531240181071642 3.816744403332192 -0.0230805462763241 -0.0126207797242469 0.0331397347769747
36 2 2.0495065278339673 10.3753373723108684 0.3396382223237836 -0.1922080448684026 -0.1717716222640111 0.0517033650022962
37 2 10.1270791021831457 9.0260088781901402 7.6413776025374888 0.0591685663650503 -0.1079933229823836 -0.0576744976507756
38 2 0.9605034975282048 4.3432009279250172 1.7872118650491574 0.1678920829713437 -0.089615840709073 0.11571512055523
39 2 3.2872602803232063 9.2475983622692049 5.7007326177543752 -0.0591896494203885 0.2181355749466821 -0.1208028217629509
40 2 10.3208442008180832 4.031328291076119 8.0524397874969882 -0.1839846248447646 0.2519612803534426 -0.0232877772836732
41 2 11.7610630473909996 8.4904875583394156 0.8444023582646288 -0.180023067324623 0.2330739480955499 -0.2360266042846275
42 2 9.1278276249253168 2.4562235150665846 11.4323676193426707 -0.088034097337843 -0.0579017832717391 -0.0228434904589844
43 2 1.5254332019944106 5.1904364847075044 4.9317850200168146 -0.0053658946940134 0.024876205526108 -0.2442695647010179
44 2 7.2938541843387182 6.4597478206879072 2.0049805511270078 0.2662540492101844 -0.142745397271872 0.0951552849439804
45 2 1.6205763522218176 11.5895267371274322 7.2969537827172131 0.0454149580820193 -0.0534355179756344 -0.1562159269704224
46 2 11.2635529076553436 10.8414867284524058 11.0583842149860097 0.1141796570615717 0.0714309341485471 0.1319087068280159
47 2 9.9212624098528046 1.6835079193001914 3.3961254233721761 -0.0944094075837824 -0.0237616318079217 -0.2008819223670722
48 2 6.6894577005189158 9.0978420406117877 8.96728450891084 0.0722603723988052 -0.0070062592435009 0.3302002416032249
49 2 7.2971025826393712 4.3620145180829928 6.9089555856921648 -0.0030773547480904 -0.2253626920503727 -0.0786331115404351
50 2 4.8828610456105972 3.0173888215020743 5.9219297020387156 -0.0037766951202857 -0.0730517583052821 -0.0714065086576064
51 2 0.1161587392334433 2.047863728693371 6.9256475769600208 0.211579258957351 -0.1391615349748019 0.1809329811397697
52 2 3.7409296429934522 5.0477517593506995 2.2161336406657011 -0.3269426524430357 0.209004812212207 -0.0769631792913878
53 2 5.6254206571526036 1.1241990118935563 3.4176666121032531 0.031247916226014 0.2363652187221942 0.0223536950880167
ITEM: TIMESTEP energy, energy_weight, force_weight, nsims
4 -3726.4907854893264260 1 1 20
ITEM: NUMBER OF ATOMS
55
ITEM: BOX BOUNDS pp pp pp
0.0 11.9999937223982994
0.0 11.9999937223982994
0.0 11.9999937223982994
ITEM: ATOMS id type x y z fx fy fz
1 2 7.3704105442895021 2.2613148170299029 9.5225014184581358 -0.0473846810935591 -0.0864883494269466 0.0724197808659968
2 2 8.5477203283990218 1.0374174572919166 3.3088878690090851 0.0776100691356685 8.3458045887720847e-04 0.2146625272453534
3 2 2.7635889542733506 11.3732952502454197 0.8739415428116846 -0.1321629890442296 -0.1063213338498887 -0.0892723411733183
4 2 11.7114274733570448 9.5201206197036116 11.7875830335174996 0.0997215661977264 -0.0809077675230865 -0.0062855787055364
5 2 2.8906784877885264 3.790480017071979 5.7015150173450754 -0.0543521166619859 -0.1734667513352918 0.0346281470617684
6 2 0.8717179439749242 0.9150799212908104 4.6434491708550284 -0.0531149012682345 0.1123084073450873 0.0620800848851752
7 2 11.9568489449687884 3.490398574054709 3.1509343516399002 -0.0250608108155331 -0.0148296154365741 0.1588034863475451
8 2 6.5115085936100998 7.1994070337472094 6.1024252076154255 0.0768991587940802 0.024578728757494 -0.137337850688044
9 2 11.2219441294222993 10.7647131686152484 7.8658362851155772 -0.0433719585976575 0.0772753113545661 -0.0245476183953486
10 2 0.3414646213683326 9.6236949655203752 2.7047577850499206 0.2603456515068578 0.4298595870766604 0.092975759820782
11 2 6.4757702123060534 6.7171620860258178 10.3578257814717727 0.1539834370984474 -0.1150422625574229 -0.0252302465895319
12 2 4.7519939140716102 0.554042110161874 4.607540389640124 0.0609053473261456 0.1588268833967619 0.1296276230845906
13 2 3.8752515727251176 1.5768987750710326 9.658692947211753 -0.0727797354693326 0.0802534214763082 -0.0367660202951522
14 2 9.2417099653496209 6.862773609851514 5.1913496842297793 -0.1325229436475654 -0.1670482465369521 0.0468696889003579
15 2 1.3016033190873764 5.9819824706230858 1.9992169541421402 0.0751826895570302 -0.0394759642374091 -0.0029858234346707
16 2 6.5767297594907062 4.9969617859206484 3.1532251504415068 -0.063808895422911 0.071560260695317 -0.1100756603626814
17 2 1.7352626922255228 6.811546836649968 5.21834127010957 -0.1082614891618688 0.010354094164955 -0.013534550195858
18 2 7.9281330525260368 0.3259906294633 6.3997670520658705 0.0318207582661799 -0.0763594839995074 -0.0937033823403823
19 2 5.7647753842514424 4.0439966844488549 5.7644837844039882 0.1044272013050494 0.0929377074770008 0.083137686290752
20 2 5.9540536852335756 0.3225418312674827 1.9478629810071368 -0.0653019356954618 -0.0057903840155187 0.1507924395398753
21 2 4.5801816039524282 8.8752013570826432 1.3202429093363777 0.007347701895808 -0.0957394398431083 -0.1576470036291132