ITEM: TIMESTEP energy, energy_weight, force_weight, nsims
0 -135.8661486833534296 1 1 246
ITEM: NUMBER OF ATOMS
2
ITEM: BOX BOUNDS pp pp pp
0.0 2.8924946343731328
0.0 2.8924946343731328
0.0 2.8924946343731328
ITEM: ATOMS id type x y z fx fy fz
1 2 0.0 0.0 0.0 0.0 0.0 0.0
2 2 1.4462473171865664 1.4462473171865664 1.4462473171865664 0.0 0.0 0.0
ITEM: TIMESTEP energy, energy_weight, force_weight, nsims
1 -135.9939423503461456 1 1 246
ITEM: NUMBER OF ATOMS
2
ITEM: BOX BOUNDS pp pp pp
0.0 2.91051720367992
0.0 2.91051720367992
0.0 2.91051720367992
ITEM: ATOMS id type x y z fx fy fz
1 2 0.0 0.0 0.0 0.0 0.0 0.0
2 2 1.45525860183996 1.45525860183996 1.45525860183996 0.0 0.0 0.0
ITEM: TIMESTEP energy, energy_weight, force_weight, nsims
2 -136.110604725155838 1 1 246
ITEM: NUMBER OF ATOMS
2
ITEM: BOX BOUNDS pp pp pp
0.0 2.9284298201145678
0.0 2.9284298201145678
0.0 2.9284298201145678
ITEM: ATOMS id type x y z fx fy fz
1 2 0.0 0.0 0.0 0.0 0.0 0.0
2 2 1.4642149100572842 1.4642149100572842 1.4642149100572842 0.0 0.0 0.0
ITEM: TIMESTEP energy, energy_weight, force_weight, nsims
3 -136.2168280611209354 1 1 246
ITEM: NUMBER OF ATOMS
2
ITEM: BOX BOUNDS pp pp pp
0.0 2.9462292497690728
0.0 2.9462292497690728
0.0 2.9462292497690728
ITEM: ATOMS id type x y z fx fy fz
1 2 0.0 0.0 0.0 0.0 0.0 0.0
2 2 1.4731146248845364 1.4731146248845364 1.4731146248845364 0.0 0.0 0.0
ITEM: TIMESTEP energy, energy_weight, force_weight, nsims
4 -136.3132699172791718 1 1 246
ITEM: NUMBER OF ATOMS
2
ITEM: BOX BOUNDS pp pp pp
0.0 2.9639251943674462
0.0 2.9639251943674462
0.0 2.9639251943674462
ITEM: ATOMS id type x y z fx fy fz
1 2 0.0 0.0 0.0 0.0 0.0 0.0
2 2 1.4819625971837232 1.4819625971837232 1.4819625971837232 0.0 0.0 0.0
ITEM: TIMESTEP energy, energy_weight, force_weight, nsims
5 -136.4005458113394696 1 1 246
ITEM: NUMBER OF ATOMS
2
ITEM: BOX BOUNDS pp pp pp
0.0 2.9815144200016856
0.0 2.9815144200016856
0.0 2.9815144200016856
ITEM: ATOMS id type x y z fx fy fz
1 2 0.0 0.0 0.0 0.0 0.0 0.0
2 2 1.4907572100008428 1.4907572100008428 1.4907572100008428 0.0 0.0 0.0
ITEM: TIMESTEP energy, energy_weight, force_weight, nsims
6 -136.479223777438648 1 1 246
ITEM: NUMBER OF ATOMS
2
ITEM: BOX BOUNDS pp pp pp
0.0 2.9990033944877976
0.0 2.9990033944877976
0.0 2.9990033944877976
ITEM: ATOMS id type x y z fx fy fz
1 2 0.0 0.0 0.0 0.0 0.0 0.0
2 2 1.4995016972438988 1.4995016972438988 1.4995016972438988 0.0 0.0 0.0
ITEM: TIMESTEP energy, energy_weight, force_weight, nsims
7 -136.5498247743094852 1 1 246
ITEM: NUMBER OF ATOMS
2
ITEM: BOX BOUNDS pp pp pp
0.0 3.016388883917779
0.0 3.016388883917779
0.0 3.016388883917779
ITEM: ATOMS id type x y z fx fy fz
1 2 0.0 0.0 0.0 0.0 0.0 0.0
2 2 1.5081944419588896 1.5081944419588896 1.5081944419588896 0.0 0.0 0.0
ITEM: TIMESTEP energy, energy_weight, force_weight, nsims
8 -136.6128278554120358 1 1 246
ITEM: NUMBER OF ATOMS
2
ITEM: BOX BOUNDS pp pp pp
0.0 3.033674122199634
0.0 3.033674122199634
0.0 3.033674122199634
ITEM: ATOMS id type x y z fx fy fz
1 2 0.0 0.0 0.0 0.0 0.0 0.0
2 2 1.516837061099817 1.516837061099817 1.516837061099817 0.0 0.0 0.0
ITEM: TIMESTEP energy, energy_weight, force_weight, nsims
9 -136.6686803731394378 1 1 246
ITEM: NUMBER OF ATOMS
2
ITEM: BOX BOUNDS pp pp pp
0.0 3.0508623432413655
0.0 3.0508623432413655
0.0 3.0508623432413655
ITEM: ATOMS id type x y z fx fy fz
1 2 0.0 0.0 0.0 0.0 0.0 0.0
2 2 1.5254311716206828 1.5254311716206828 1.5254311716206828 0.0 0.0 0.0
ITEM: TIMESTEP energy, energy_weight, force_weight, nsims
10 -136.7178096796410784 1 1 246
ITEM: NUMBER OF ATOMS
2
ITEM: BOX BOUNDS pp pp pp
0.0 3.0679535470429751
0.0 3.0679535470429751
0.0 3.0679535470429751
ITEM: ATOMS id type x y z fx fy fz
1 2 0.0 0.0 0.0 0.0 0.0 0.0
2 2 1.5339767735214876 1.5339767735214876 1.5339767735214876 0.0 0.0 0.0
ITEM: TIMESTEP energy, energy_weight, force_weight, nsims
11 -136.7606299296264752 1 1 246
ITEM: NUMBER OF ATOMS
2
ITEM: BOX BOUNDS pp pp pp
0.0 3.0849509675124658
0.0 3.0849509675124658
0.0 3.0849509675124658
ITEM: ATOMS id type x y z fx fy fz
1 2 0.0 0.0 0.0 0.0 0.0 0.0
2 2 1.542475483756233 1.542475483756233 1.542475483756233 0.0 0.0 0.0
ITEM: TIMESTEP energy, energy_weight, force_weight, nsims
12 -136.7975419443092450 1 1 246
ITEM: NUMBER OF ATOMS
2
ITEM: BOX BOUNDS pp pp pp
0.0 3.1018546046498376
0.0 3.1018546046498376
0.0 3.1018546046498376
ITEM: ATOMS id type x y z fx fy fz
1 2 0.0 0.0 0.0 0.0 0.0 0.0
2 2 1.5509273023249188 1.5509273023249188 1.5509273023249188 0.0 0.0 0.0
ITEM: TIMESTEP energy, energy_weight, force_weight, nsims
13 -136.8289276331078384 1 1 246
ITEM: NUMBER OF ATOMS
2
ITEM: BOX BOUNDS pp pp pp
0.0 3.1186676923630956
0.0 3.1186676923630956
0.0 3.1186676923630956
ITEM: ATOMS id type x y z fx fy fz
1 2 0.0 0.0 0.0 0.0 0.0 0.0
2 2 1.5593338461815478 1.5593338461815478 1.5593338461815478 0.0 0.0 0.0
ITEM: TIMESTEP energy, energy_weight, force_weight, nsims
14 -136.8551479528042024 1 1 246
ITEM: NUMBER OF ATOMS
2
ITEM: BOX BOUNDS pp pp pp
0.0 3.1353902306522388
0.0 3.1353902306522388
0.0 3.1353902306522388
ITEM: ATOMS id type x y z fx fy fz
1 2 0.0 0.0 0.0 0.0 0.0 0.0
2 2 1.5676951153261194 1.5676951153261194 1.5676951153261194 0.0 0.0 0.0
ITEM: TIMESTEP energy, energy_weight, force_weight, nsims
15 -136.8765416830391644 1 1 246
ITEM: NUMBER OF ATOMS
2
ITEM: BOX BOUNDS pp pp pp
0.0 3.1520222195172671
0.0 3.1520222195172671
0.0 3.1520222195172671
ITEM: ATOMS id type x y z fx fy fz
1 2 0.0 0.0 0.0 0.0 0.0 0.0
2 2 1.5760111097586336 1.5760111097586336 1.5760111097586336 0.0 0.0 0.0
ITEM: TIMESTEP energy, energy_weight, force_weight, nsims
16 -136.8934281474340936 1 1 246
ITEM: NUMBER OF ATOMS
2
ITEM: BOX BOUNDS pp pp pp
0.0 3.1685701267741897
0.0 3.1685701267741897
0.0 3.1685701267741897
ITEM: ATOMS id type x y z fx fy fz
1 2 0.0 0.0 0.0 0.0 0.0 0.0
2 2 1.5842850633870948 1.5842850633870948 1.5842850633870948 0.0 0.0 0.0
ITEM: TIMESTEP energy, energy_weight, force_weight, nsims
17 -136.9061073496467884 1 1 246
ITEM: NUMBER OF ATOMS
2
ITEM: BOX BOUNDS pp pp pp
0.0 3.185030718515002
0.0 3.185030718515002
0.0 3.185030718515002
ITEM: ATOMS id type x y z fx fy fz
1 2 0.0 0.0 0.0 0.0 0.0 0.0
2 2 1.592515359257501 1.592515359257501 1.592515359257501 0.0 0.0 0.0
ITEM: TIMESTEP energy, energy_weight, force_weight, nsims
18 -136.9148601094277356 1 1 246
ITEM: NUMBER OF ATOMS
2
ITEM: BOX BOUNDS pp pp pp
0.0 3.2014039947397035
0.0 3.2014039947397035
0.0 3.2014039947397035
ITEM: ATOMS id type x y z fx fy fz
1 2 0.0 0.0 0.0 0.0 0.0 0.0
2 2 1.6007019973698516 1.6007019973698516 1.6007019973698516 0.0 0.0 0.0
ITEM: TIMESTEP energy, energy_weight, force_weight, nsims
19 -136.9199465660031764 1 1 246
ITEM: NUMBER OF ATOMS
2
ITEM: BOX BOUNDS pp pp pp
0.0 3.2176964232643028
0.0 3.2176964232643028
0.0 3.2176964232643028
ITEM: ATOMS id type x y z fx fy fz
1 2 0.0 0.0 0.0 0.0 0.0 0.0
2 2 1.6088482116321514 1.6088482116321514 1.6088482116321514 0.0 0.0 0.0
ITEM: TIMESTEP energy, energy_weight, force_weight, nsims
20 -136.9216063141311396 1 1 246
ITEM: NUMBER OF ATOMS
2
ITEM: BOX BOUNDS pp pp pp
0.0 3.2342313948892088
0.0 3.2342313948892088
0.0 3.2342313948892088
ITEM: ATOMS id type x y z fx fy fz
1 2 0.0 0.0 0.0 0.0 0.0 0.0
2 2 1.6171156974446044 1.6171156974446044 1.6171156974446044 0.0 0.0 0.0
ITEM: TIMESTEP energy, energy_weight, force_weight, nsims
21 -136.920059492550138 1 1 246
ITEM: NUMBER OF ATOMS
2
ITEM: BOX BOUNDS pp pp pp
0.0 3.2500387372131949
0.0 3.2500387372131949
0.0 3.2500387372131949
ITEM: ATOMS id type x y z fx fy fz
1 2 0.0 0.0 0.0 0.0 0.0 0.0
2 2 1.625019368606598 1.625019368606598 1.625019368606598 0.0 0.0 0.0
ITEM: TIMESTEP energy, energy_weight, force_weight, nsims
22 -136.9155067839791116 1 1 246
ITEM: NUMBER OF ATOMS
2
ITEM: BOX BOUNDS pp pp pp
0.0 3.2660853887294832
0.0 3.2660853887294832
0.0 3.2660853887294832
ITEM: ATOMS id type x y z fx fy fz
1 2 0.0 0.0 0.0 0.0 0.0 0.0
2 2 1.6330426943647416 1.6330426943647416 1.6330426943647416 0.0 0.0 0.0
ITEM: TIMESTEP energy, energy_weight, force_weight, nsims
23 -136.9081340410242832 1 1 246
ITEM: NUMBER OF ATOMS
2
ITEM: BOX BOUNDS pp pp pp
0.0 3.2820576603616778
0.0 3.2820576603616778
0.0 3.2820576603616778
ITEM: ATOMS id type x y z fx fy fz
1 2 0.0 0.0 0.0 0.0 0.0 0.0
2 2 1.641028830180839 1.641028830180839 1.641028830180839 0.0 0.0 0.0
ITEM: TIMESTEP energy, energy_weight, force_weight, nsims
24 -136.8981137827958890 1 1 246
ITEM: NUMBER OF ATOMS
2
ITEM: BOX BOUNDS pp pp pp
0.0 3.2979523182017743
0.0 3.2979523182017743
0.0 3.2979523182017743
ITEM: ATOMS id type x y z fx fy fz
1 2 0.0 0.0 0.0 0.0 0.0 0.0
2 2 1.6489761591008872 1.6489761591008872 1.6489761591008872 0.0 0.0 0.0
ITEM: TIMESTEP energy, energy_weight, force_weight, nsims
25 -136.8856084602542752 1 1 246
ITEM: NUMBER OF ATOMS
2
ITEM: BOX BOUNDS pp pp pp
0.0 3.3137693622497726
0.0 3.3137693622497726
0.0 3.3137693622497726
ITEM: ATOMS id type x y z fx fy fz
1 2 0.0 0.0 0.0 0.0 0.0 0.0
2 2 1.6568846811248864 1.6568846811248864 1.6568846811248864 0.0 0.0 0.0
ITEM: TIMESTEP energy, energy_weight, force_weight, nsims
26 -136.870774401836144 1 1 246
ITEM: NUMBER OF ATOMS
2
ITEM: BOX BOUNDS pp pp pp
0.0 3.3295120264136773
0.0 3.3295120264136773
0.0 3.3295120264136773
ITEM: ATOMS id type x y z fx fy fz
1 2 0.0 0.0 0.0 0.0 0.0 0.0
2 2 1.6647560132068386 1.6647560132068386 1.6647560132068386 0.0 0.0 0.0
ITEM: TIMESTEP energy, energy_weight, force_weight, nsims
27 -136.8537652148564518 1 1 246
ITEM: NUMBER OF ATOMS
2
ITEM: BOX BOUNDS pp pp pp
0.0 3.3451803106934874
0.0 3.3451803106934874
0.0 3.3451803106934874
ITEM: ATOMS id type x y z fx fy fz
1 2 0.0 0.0 0.0 0.0 0.0 0.0
2 2 1.6725901553467436 1.6725901553467436 1.6725901553467436 0.0 0.0 0.0
ITEM: TIMESTEP energy, energy_weight, force_weight, nsims
28 -136.8347313773405176 1 1 246
ITEM: NUMBER OF ATOMS
2
ITEM: BOX BOUNDS pp pp pp
0.0 3.360774215089204
0.0 3.360774215089204
0.0 3.360774215089204
ITEM: ATOMS id type x y z fx fy fz
1 2 0.0 0.0 0.0 0.0 0.0 0.0
2 2 1.680387107544602 1.680387107544602 1.680387107544602 0.0 0.0 0.0
ITEM: TIMESTEP energy, energy_weight, force_weight, nsims
29 -136.8138147957803882 1 1 246
ITEM: NUMBER OF ATOMS
2
ITEM: BOX BOUNDS pp pp pp
0.0 3.3763002074168336
0.0 3.3763002074168336
0.0 3.3763002074168336
ITEM: ATOMS id type x y z fx fy fz
1 2 0.0 0.0 0.0 0.0 0.0 0.0
2 2 1.6881501037084168 1.6881501037084168 1.6881501037084168 0.0 0.0 0.0
ITEM: TIMESTEP energy, energy_weight, force_weight, nsims
30 -136.7911429547237106 1 1 246
ITEM: NUMBER OF ATOMS
2
ITEM: BOX BOUNDS pp pp pp
0.0 3.3917518198603705
0.0 3.3917518198603705
0.0 3.3917518198603705
ITEM: ATOMS id type x y z fx fy fz
1 2 0.0 0.0 0.0 0.0 0.0 0.0
2 2 1.6958759099301852 1.6958759099301852 1.6958759099301852 0.0 0.0 0.0
ITEM: TIMESTEP energy, energy_weight, force_weight, nsims
31 -136.7668301412781774 1 1 246
ITEM: NUMBER OF ATOMS
2
ITEM: BOX BOUNDS pp pp pp
0.0 3.4071322863278169
0.0 3.4071322863278169
0.0 3.4071322863278169
ITEM: ATOMS id type x y z fx fy fz
1 2 0.0 0.0 0.0 0.0 0.0 0.0
2 2 1.7035661431639084 1.7035661431639084 1.7035661431639084 0.0 0.0 0.0
ITEM: TIMESTEP energy, energy_weight, force_weight, nsims
32 -136.7409815267941724 1 1 246
ITEM: NUMBER OF ATOMS
2
ITEM: BOX BOUNDS pp pp pp
0.0 3.4224480746351809
0.0 3.4224480746351809
0.0 3.4224480746351809
ITEM: ATOMS id type x y z fx fy fz
1 2 0.0 0.0 0.0 0.0 0.0 0.0
2 2 1.7112240373175904 1.7112240373175904 1.7112240373175904 0.0 0.0 0.0
ITEM: TIMESTEP energy, energy_weight, force_weight, nsims
33 -136.7136987451639528 1 1 246
ITEM: NUMBER OF ATOMS
2
ITEM: BOX BOUNDS pp pp pp
0.0 3.4376927169664558
0.0 3.4376927169664558
0.0 3.4376927169664558
ITEM: ATOMS id type x y z fx fy fz
1 2 0.0 0.0 0.0 0.0 0.0 0.0
2 2 1.7188463584832284 1.7188463584832284 1.7188463584832284 0.0 0.0 0.0
ITEM: TIMESTEP energy, energy_weight, force_weight, nsims
34 -136.6850812533824638 1 1 246
ITEM: NUMBER OF ATOMS
2
ITEM: BOX BOUNDS pp pp pp
0.0 3.4528694472296446
0.0 3.4528694472296446
0.0 3.4528694472296446
ITEM: ATOMS id type x y z fx fy fz
1 2 0.0 0.0 0.0 0.0 0.0 0.0
2 2 1.7264347236148224 1.7264347236148224 1.7264347236148224 0.0 0.0 0.0
ITEM: TIMESTEP energy, energy_weight, force_weight, nsims
35 -136.6552259233791348 1 1 246
ITEM: NUMBER OF ATOMS
2
ITEM: BOX BOUNDS pp pp pp
0.0 3.4679814993327516
0.0 3.4679814993327516
0.0 3.4679814993327516
ITEM: ATOMS id type x y z fx fy fz
1 2 0.0 0.0 0.0 0.0 0.0 0.0
2 2 1.7339907496663758 1.7339907496663758 1.7339907496663758 0.0 0.0 0.0
ITEM: TIMESTEP energy, energy_weight, force_weight, nsims
36 -136.6242252732888290 1 1 246
ITEM: NUMBER OF ATOMS
2
ITEM: BOX BOUNDS pp pp pp
0.0 3.4830256393677722
0.0 3.4830256393677722
0.0 3.4830256393677722
ITEM: ATOMS id type x y z fx fy fz
1 2 0.0 0.0 0.0 0.0 0.0 0.0
2 2 1.741512819683886 1.741512819683886 1.741512819683886 0.0 0.0 0.0
ITEM: TIMESTEP energy, energy_weight, force_weight, nsims
37 -136.5921682837882544 1 1 246
ITEM: NUMBER OF ATOMS
2
ITEM: BOX BOUNDS pp pp pp
0.0 3.498005101242712
0.0 3.498005101242712
0.0 3.498005101242712
ITEM: ATOMS id type x y z fx fy fz
1 2 0.0 0.0 0.0 0.0 0.0 0.0
2 2 1.749002550621356 1.749002550621356 1.749002550621356 0.0 0.0 0.0
ITEM: TIMESTEP energy, energy_weight, force_weight, nsims
38 -136.5591390375353456 1 1 246
ITEM: NUMBER OF ATOMS
2
ITEM: BOX BOUNDS pp pp pp
0.0 3.5129231188655736
0.0 3.5129231188655736
0.0 3.5129231188655736
ITEM: ATOMS id type x y z fx fy fz
1 2 0.0 0.0 0.0 0.0 0.0 0.0
2 2 1.7564615594327868 1.7564615594327868 1.7564615594327868 0.0 0.0 0.0
ITEM: TIMESTEP energy, energy_weight, force_weight, nsims
39 -136.5252179436736526 1 1 246
ITEM: NUMBER OF ATOMS
2
ITEM: BOX BOUNDS pp pp pp
0.0 3.5277764583283528
0.0 3.5277764583283528
0.0 3.5277764583283528
ITEM: ATOMS id type x y z fx fy fz
1 2 0.0 0.0 0.0 0.0 0.0 0.0
2 2 1.7638882291641764 1.7638882291641764 1.7638882291641764 0.0 0.0 0.0
ITEM: TIMESTEP energy, energy_weight, force_weight, nsims
40 -136.4904816017767076 1 1 246
ITEM: NUMBER OF ATOMS
2
ITEM: BOX BOUNDS pp pp pp
0.0 3.5425683535390556
0.0 3.5425683535390556
0.0 3.5425683535390556
ITEM: ATOMS id type x y z fx fy fz
1 2 0.0 0.0 0.0 0.0 0.0 0.0
2 2 1.7712841767695278 1.7712841767695278 1.7712841767695278 0.0 0.0 0.0
ITEM: TIMESTEP energy, energy_weight, force_weight, nsims
41 -136.5322154439580232 1 1 246
ITEM: NUMBER OF ATOMS
2
ITEM: BOX BOUNDS pp pp pp
0.0 2.8924946343731328
0.0 2.8924946343731328
0.0 3.2339080040888
ITEM: ATOMS id type x y z fx fy fz
1 2 0.0 0.0 0.0 0.0 0.0 0.0
2 2 1.4462473171865664 1.4462473171865664 1.6169540020444 0.0 0.0 0.0
ITEM: TIMESTEP energy, energy_weight, force_weight, nsims
42 -136.5778062039139230 1 1 246
ITEM: NUMBER OF ATOMS
2
ITEM: BOX BOUNDS pp pp pp
0.0 2.91051720367992
0.0 2.91051720367992
0.0 3.2339080040888
ITEM: ATOMS id type x y z fx fy fz
1 2 0.0 0.0 0.0 0.0 0.0 0.0
2 2 1.45525860183996 1.45525860183996 1.6169540020444 0.0 0.0 0.0
ITEM: TIMESTEP energy, energy_weight, force_weight, nsims
43 -136.6200079429566472 1 1 246
ITEM: NUMBER OF ATOMS
2
ITEM: BOX BOUNDS pp pp pp
0.0 2.9284298201145678
0.0 2.9284298201145678
0.0 3.2339080040888
ITEM: ATOMS id type x y z fx fy fz
1 2 0.0 0.0 0.0 0.0 0.0 0.0
2 2 1.4642149100572842 1.4642149100572842 1.6169540020444 0.0 0.0 0.0
ITEM: TIMESTEP energy, energy_weight, force_weight, nsims
44 -136.6591553590446608 1 1 246
ITEM: NUMBER OF ATOMS
2
ITEM: BOX BOUNDS pp pp pp
0.0 2.9462292497690728
0.0 2.9462292497690728
0.0 3.2339080040888
ITEM: ATOMS id type x y z fx fy fz
1 2 0.0 0.0 0.0 0.0 0.0 0.0
2 2 1.4731146248845364 1.4731146248845364 1.6169540020444 0.0 0.0 0.0
ITEM: TIMESTEP energy, energy_weight, force_weight, nsims
45 -136.6952132136530622 1 1 246
ITEM: NUMBER OF ATOMS
2
ITEM: BOX BOUNDS pp pp pp
0.0 2.9639251943674462
0.0 2.9639251943674462
0.0 3.2339080040888
ITEM: ATOMS id type x y z fx fy fz
1 2 0.0 0.0 0.0 0.0 0.0 0.0
2 2 1.4819625971837232 1.4819625971837232 1.6169540020444 0.0 0.0 0.0
ITEM: TIMESTEP energy, energy_weight, force_weight, nsims
46 -136.7279404154069482 1 1 246
ITEM: NUMBER OF ATOMS
2
ITEM: BOX BOUNDS pp pp pp
0.0 2.9815144200016856
0.0 2.9815144200016856
0.0 3.2339080040888
ITEM: ATOMS id type x y z fx fy fz
1 2 0.0 0.0 0.0 0.0 0.0 0.0
2 2 1.4907572100008428 1.4907572100008428 1.6169540020444 0.0 0.0 0.0
ITEM: TIMESTEP energy, energy_weight, force_weight, nsims
47 -136.7572451264518350 1 1 246
ITEM: NUMBER OF ATOMS
2
ITEM: BOX BOUNDS pp pp pp
0.0 2.9990033944877976
0.0 2.9990033944877976
0.0 3.2339080040888
ITEM: ATOMS id type x y z fx fy fz
1 2 0.0 0.0 0.0 0.0 0.0 0.0
2 2 1.4995016972438988 1.4995016972438988 1.6169540020444 0.0 0.0 0.0
ITEM: TIMESTEP energy, energy_weight, force_weight, nsims
48 -136.7833148320669068 1 1 246
ITEM: NUMBER OF ATOMS
2
ITEM: BOX BOUNDS pp pp pp
0.0 3.016388883917779
0.0 3.016388883917779
0.0 3.2339080040888
ITEM: ATOMS id type x y z fx fy fz
1 2 0.0 0.0 0.0 0.0 0.0 0.0
2 2 1.5081944419588896 1.5081944419588896 1.6169540020444 0.0 0.0 0.0
ITEM: TIMESTEP energy, energy_weight, force_weight, nsims
49 -136.8064606925086082 1 1 246
ITEM: NUMBER OF ATOMS
2
ITEM: BOX BOUNDS pp pp pp
0.0 3.033674122199634
0.0 3.033674122199634
0.0 3.2339080040888
ITEM: ATOMS id type x y z fx fy fz
1 2 0.0 0.0 0.0 0.0 0.0 0.0
2 2 1.516837061099817 1.516837061099817 1.6169540020444 0.0 0.0 0.0
ITEM: TIMESTEP energy, energy_weight, force_weight, nsims
50 -136.8269348196944294 1 1 246
ITEM: NUMBER OF ATOMS
2
ITEM: BOX BOUNDS pp pp pp
0.0 3.0508623432413655
0.0 3.0508623432413655
0.0 3.2339080040888
ITEM: ATOMS id type x y z fx fy fz
1 2 0.0 0.0 0.0 0.0 0.0 0.0
2 2 1.5254311716206828 1.5254311716206828 1.6169540020444 0.0 0.0 0.0
ITEM: TIMESTEP energy, energy_weight, force_weight, nsims
51 -136.8449176239872714 1 1 246
ITEM: NUMBER OF ATOMS
2
ITEM: BOX BOUNDS pp pp pp
0.0 3.0679535470429751
0.0 3.0679535470429751
0.0 3.2339080040888
ITEM: ATOMS id type x y z fx fy fz
1 2 0.0 0.0 0.0 0.0 0.0 0.0
2 2 1.5339767735214876 1.5339767735214876 1.6169540020444 0.0 0.0 0.0
ITEM: TIMESTEP energy, energy_weight, force_weight, nsims
52 -136.860590740254878 1 1 246
ITEM: NUMBER OF ATOMS
2
ITEM: BOX BOUNDS pp pp pp
0.0 3.0849509675124658
0.0 3.0849509675124658
0.0 3.2339080040888
ITEM: ATOMS id type x y z fx fy fz
1 2 0.0 0.0 0.0 0.0 0.0 0.0
2 2 1.542475483756233 1.542475483756233 1.6169540020444 0.0 0.0 0.0
ITEM: TIMESTEP energy, energy_weight, force_weight, nsims
53 -136.8741817903201366 1 1 246
ITEM: NUMBER OF ATOMS
2
ITEM: BOX BOUNDS pp pp pp
0.0 3.1018546046498376
0.0 3.1018546046498376
0.0 3.2339080040888
ITEM: ATOMS id type x y z fx fy fz
1 2 0.0 0.0 0.0 0.0 0.0 0.0
2 2 1.5509273023249188 1.5509273023249188 1.6169540020444 0.0 0.0 0.0
ITEM: TIMESTEP energy, energy_weight, force_weight, nsims
54 -136.8859015250520486 1 1 246
ITEM: NUMBER OF ATOMS
2
ITEM: BOX BOUNDS pp pp pp
0.0 3.1186676923630956
0.0 3.1186676923630956
0.0 3.2339080040888
ITEM: ATOMS id type x y z fx fy fz
1 2 0.0 0.0 0.0 0.0 0.0 0.0
2 2 1.5593338461815478 1.5593338461815478 1.6169540020444 0.0 0.0 0.0
ITEM: TIMESTEP energy, energy_weight, force_weight, nsims
55 -136.8958545715765638 1 1 246
ITEM: NUMBER OF ATOMS
2
ITEM: BOX BOUNDS pp pp pp
0.0 3.1353902306522388
0.0 3.1353902306522388
0.0 3.2339080040888
ITEM: ATOMS id type x y z fx fy fz
1 2 0.0 0.0 0.0 0.0 0.0 0.0
2 2 1.5676951153261194 1.5676951153261194 1.6169540020444 0.0 0.0 0.0
ITEM: TIMESTEP energy, energy_weight, force_weight, nsims
56 -136.9040539912774648 1 1 246
ITEM: NUMBER OF ATOMS
2
ITEM: BOX BOUNDS pp pp pp
0.0 3.1520222195172671
0.0 3.1520222195172671
0.0 3.2339080040888
ITEM: ATOMS id type x y z fx fy fz
1 2 0.0 0.0 0.0 0.0 0.0 0.0
2 2 1.5760111097586336 1.5760111097586336 1.6169540020444 0.0 0.0 0.0
ITEM: TIMESTEP energy, energy_weight, force_weight, nsims
57 -136.9105410091472096 1 1 246
ITEM: NUMBER OF ATOMS
2
ITEM: BOX BOUNDS pp pp pp
0.0 3.1685701267741897
0.0 3.1685701267741897
0.0 3.2339080040888
ITEM: ATOMS id type x y z fx fy fz
1 2 0.0 0.0 0.0 0.0 0.0 0.0
2 2 1.5842850633870948 1.5842850633870948 1.6169540020444 0.0 0.0 0.0
ITEM: TIMESTEP energy, energy_weight, force_weight, nsims
58 -136.9154409328360772 1 1 246
ITEM: NUMBER OF ATOMS
2
ITEM: BOX BOUNDS pp pp pp
0.0 3.185030718515002
0.0 3.185030718515002
0.0 3.2339080040888
ITEM: ATOMS id type x y z fx fy fz
1 2 0.0 0.0 0.0 0.0 0.0 0.0
2 2 1.592515359257501 1.592515359257501 1.6169540020444 0.0 0.0 0.0
ITEM: TIMESTEP energy, energy_weight, force_weight, nsims
59 -136.9188827435085048 1 1 246
ITEM: NUMBER OF ATOMS
2
ITEM: BOX BOUNDS pp pp pp
0.0 3.2014039947397035
0.0 3.2014039947397035
0.0 3.2339080040888
ITEM: ATOMS id type x y z fx fy fz
1 2 0.0 0.0 0.0 0.0 0.0 0.0
2 2 1.6007019973698516 1.6007019973698516 1.6169540020444 0.0 0.0 0.0
ITEM: TIMESTEP energy, energy_weight, force_weight, nsims
60 -136.9209275303447272 1 1 246
ITEM: NUMBER OF ATOMS
2
ITEM: BOX BOUNDS pp pp pp
0.0 3.2176964232643028
0.0 3.2176964232643028
0.0 3.2339080040888
ITEM: ATOMS id type x y z fx fy fz
1 2 0.0 0.0 0.0 0.0 0.0 0.0
2 2 1.6088482116321514 1.6088482116321514 1.6169540020444 0.0 0.0 0.0
ITEM: TIMESTEP energy, energy_weight, force_weight, nsims
61 -136.9216065862432856 1 1 246
ITEM: NUMBER OF ATOMS
2
ITEM: BOX BOUNDS pp pp pp
0.0 3.2342313948892088
0.0 3.2342313948892088
0.0 3.2339080040888
ITEM: ATOMS id type x y z fx fy fz
1 2 0.0 0.0 0.0 0.0 0.0 0.0
2 2 1.6171156974446044 1.6171156974446044 1.6169540020444 0.0 0.0 0.0
ITEM: TIMESTEP energy, energy_weight, force_weight, nsims
62 -136.920983993618222 1 1 246
ITEM: NUMBER OF ATOMS
2
ITEM: BOX BOUNDS pp pp pp
0.0 3.2500387372131949
0.0 3.2500387372131949
0.0 3.2339080040888
ITEM: ATOMS id type x y z fx fy fz
1 2 0.0 0.0 0.0 0.0 0.0 0.0
2 2 1.625019368606598 1.625019368606598 1.6169540020444 0.0 0.0 0.0
ITEM: TIMESTEP energy, energy_weight, force_weight, nsims
63 -136.9191402976691736 1 1 246
ITEM: NUMBER OF ATOMS
2
ITEM: BOX BOUNDS pp pp pp
0.0 3.2660853887294832
0.0 3.2660853887294832
0.0 3.2339080040888
ITEM: ATOMS id type x y z fx fy fz
1 2 0.0 0.0 0.0 0.0 0.0 0.0
2 2 1.6330426943647416 1.6330426943647416 1.6169540020444 0.0 0.0 0.0
ITEM: TIMESTEP energy, energy_weight, force_weight, nsims
64 -136.91612325408056 1 1 246
ITEM: NUMBER OF ATOMS
2
ITEM: BOX BOUNDS pp pp pp
0.0 3.2820576603616778
0.0 3.2820576603616778
0.0 3.2339080040888
ITEM: ATOMS id type x y z fx fy fz
1 2 0.0 0.0 0.0 0.0 0.0 0.0
2 2 1.641028830180839 1.641028830180839 1.6169540020444 0.0 0.0 0.0
ITEM: TIMESTEP energy, energy_weight, force_weight, nsims
65 -136.9119415704415132 1 1 246
ITEM: NUMBER OF ATOMS
2
ITEM: BOX BOUNDS pp pp pp
0.0 3.2979523182017743
0.0 3.2979523182017743
0.0 3.2339080040888
ITEM: ATOMS id type x y z fx fy fz
1 2 0.0 0.0 0.0 0.0 0.0 0.0
2 2 1.6489761591008872 1.6489761591008872 1.6169540020444 0.0 0.0 0.0
ITEM: TIMESTEP energy, energy_weight, force_weight, nsims
66 -136.9066017774439104 1 1 246
ITEM: NUMBER OF ATOMS
2
ITEM: BOX BOUNDS pp pp pp
0.0 3.3137693622497726
0.0 3.3137693622497726
0.0 3.2339080040888
ITEM: ATOMS id type x y z fx fy fz
1 2 0.0 0.0 0.0 0.0 0.0 0.0
2 2 1.6568846811248864 1.6568846811248864 1.6169540020444 0.0 0.0 0.0
ITEM: TIMESTEP energy, energy_weight, force_weight, nsims
67 -136.9001465966970272 1 1 246
ITEM: NUMBER OF ATOMS
2
ITEM: BOX BOUNDS pp pp pp
0.0 3.3295120264136773
0.0 3.3295120264136773
0.0 3.2339080040888
ITEM: ATOMS id type x y z fx fy fz
1 2 0.0 0.0 0.0 0.0 0.0 0.0
2 2 1.6647560132068386 1.6647560132068386 1.6169540020444 0.0 0.0 0.0
ITEM: TIMESTEP energy, energy_weight, force_weight, nsims
68 -136.8926599748027116 1 1 246
ITEM: NUMBER OF ATOMS
2
ITEM: BOX BOUNDS pp pp pp
0.0 3.3451803106934874
0.0 3.3451803106934874
0.0 3.2339080040888
ITEM: ATOMS id type x y z fx fy fz
1 2 0.0 0.0 0.0 0.0 0.0 0.0
2 2 1.6725901553467436 1.6725901553467436 1.6169540020444 0.0 0.0 0.0
ITEM: TIMESTEP energy, energy_weight, force_weight, nsims
69 -136.8842428653726984 1 1 246
ITEM: NUMBER OF ATOMS
2
ITEM: BOX BOUNDS pp pp pp
0.0 3.360774215089204
0.0 3.360774215089204
0.0 3.2339080040888
ITEM: ATOMS id type x y z fx fy fz
1 2 0.0 0.0 0.0 0.0 0.0 0.0
2 2 1.680387107544602 1.680387107544602 1.6169540020444 0.0 0.0 0.0
ITEM: TIMESTEP energy, energy_weight, force_weight, nsims
70 -136.8749794871210668 1 1 246
ITEM: NUMBER OF ATOMS
2
ITEM: BOX BOUNDS pp pp pp
0.0 3.3763002074168336
0.0 3.3763002074168336
0.0 3.2339080040888
ITEM: ATOMS id type x y z fx fy fz
1 2 0.0 0.0 0.0 0.0 0.0 0.0
2 2 1.6881501037084168 1.6881501037084168 1.6169540020444 0.0 0.0 0.0
ITEM: TIMESTEP energy, energy_weight, force_weight, nsims
71 -136.8649122895448614 1 1 246
ITEM: NUMBER OF ATOMS
2
ITEM: BOX BOUNDS pp pp pp
0.0 3.3917518198603705
0.0 3.3917518198603705
0.0 3.2339080040888
ITEM: ATOMS id type x y z fx fy fz
1 2 0.0 0.0 0.0 0.0 0.0 0.0
2 2 1.6958759099301852 1.6958759099301852 1.6169540020444 0.0 0.0 0.0
ITEM: TIMESTEP energy, energy_weight, force_weight, nsims
72 -136.8540533816353104 1 1 246
ITEM: NUMBER OF ATOMS
2
ITEM: BOX BOUNDS pp pp pp
0.0 3.4071322863278169
0.0 3.4071322863278169
0.0 3.2339080040888
ITEM: ATOMS id type x y z fx fy fz
1 2 0.0 0.0 0.0 0.0 0.0 0.0
2 2 1.7035661431639084 1.7035661431639084 1.6169540020444 0.0 0.0 0.0
ITEM: TIMESTEP energy, energy_weight, force_weight, nsims
73 -136.8424306548889150 1 1 246
ITEM: NUMBER OF ATOMS
2
ITEM: BOX BOUNDS pp pp pp
0.0 3.4224480746351809
0.0 3.4224480746351809
0.0 3.2339080040888
ITEM: ATOMS id type x y z fx fy fz
1 2 0.0 0.0 0.0 0.0 0.0 0.0
2 2 1.7112240373175904 1.7112240373175904 1.6169540020444 0.0 0.0 0.0
ITEM: TIMESTEP energy, energy_weight, force_weight, nsims
74 -136.8301141781872730 1 1 246
ITEM: NUMBER OF ATOMS
2
ITEM: BOX BOUNDS pp pp pp
0.0 3.4376927169664558
0.0 3.4376927169664558
0.0 3.2339080040888
ITEM: ATOMS id type x y z fx fy fz
1 2 0.0 0.0 0.0 0.0 0.0 0.0
2 2 1.7188463584832284 1.7188463584832284 1.6169540020444 0.0 0.0 0.0
ITEM: TIMESTEP energy, energy_weight, force_weight, nsims
75 -136.8171847688422248 1 1 246
ITEM: NUMBER OF ATOMS
2
ITEM: BOX BOUNDS pp pp pp
0.0 3.4528694472296446
0.0 3.4528694472296446
0.0 3.2339080040888
ITEM: ATOMS id type x y z fx fy fz
1 2 0.0 0.0 0.0 0.0 0.0 0.0
2 2 1.7264347236148224 1.7264347236148224 1.6169540020444 0.0 0.0 0.0
ITEM: TIMESTEP energy, energy_weight, force_weight, nsims
76 -136.8037017473050128 1 1 246
ITEM: NUMBER OF ATOMS
2
ITEM: BOX BOUNDS pp pp pp
0.0 3.4679814993327516
0.0 3.4679814993327516
0.0 3.2339080040888
ITEM: ATOMS id type x y z fx fy fz
1 2 0.0 0.0 0.0 0.0 0.0 0.0
2 2 1.7339907496663758 1.7339907496663758 1.6169540020444 0.0 0.0 0.0
ITEM: TIMESTEP energy, energy_weight, force_weight, nsims
77 -136.7897051140633096 1 1 246
ITEM: NUMBER OF ATOMS
2
ITEM: BOX BOUNDS pp pp pp
0.0 3.4830256393677722
0.0 3.4830256393677722
0.0 3.2339080040888
ITEM: ATOMS id type x y z fx fy fz
1 2 0.0 0.0 0.0 0.0 0.0 0.0
2 2 1.741512819683886 1.741512819683886 1.6169540020444 0.0 0.0 0.0
ITEM: TIMESTEP energy, energy_weight, force_weight, nsims
78 -136.7752320124271250 1 1 246
ITEM: NUMBER OF ATOMS
2
ITEM: BOX BOUNDS pp pp pp
0.0 3.498005101242712
0.0 3.498005101242712
0.0 3.2339080040888
ITEM: ATOMS id type x y z fx fy fz
1 2 0.0 0.0 0.0 0.0 0.0 0.0
2 2 1.749002550621356 1.749002550621356 1.6169540020444 0.0 0.0 0.0
ITEM: TIMESTEP energy, energy_weight, force_weight, nsims
79 -136.7603167285288066 1 1 246
ITEM: NUMBER OF ATOMS
2
ITEM: BOX BOUNDS pp pp pp
0.0 3.5129231188655736
0.0 3.5129231188655736
0.0 3.2339080040888
ITEM: ATOMS id type x y z fx fy fz
1 2 0.0 0.0 0.0 0.0 0.0 0.0
2 2 1.7564615594327868 1.7564615594327868 1.6169540020444 0.0 0.0 0.0
ITEM: TIMESTEP energy, energy_weight, force_weight, nsims
80 -136.7449757251540916 1 1 246
ITEM: NUMBER OF ATOMS
2
ITEM: BOX BOUNDS pp pp pp
0.0 3.5277764583283528
0.0 3.5277764583283528
0.0 3.2339080040888
ITEM: ATOMS id type x y z fx fy fz
1 2 0.0 0.0 0.0 0.0 0.0 0.0
2 2 1.7638882291641764 1.7638882291641764 1.6169540020444 0.0 0.0 0.0
ITEM: TIMESTEP energy, energy_weight, force_weight, nsims
81 -136.7291977096483038 1 1 246
ITEM: NUMBER OF ATOMS
2
ITEM: BOX BOUNDS pp pp pp
0.0 3.5425683535390556
0.0 3.5425683535390556
0.0 3.2339080040888
ITEM: ATOMS id type x y z fx fy fz
1 2 0.0 0.0 0.0 0.0 0.0 0.0
2 2 1.7712841767695278 1.7712841767695278 1.6169540020444 0.0 0.0 0.0
ITEM: TIMESTEP energy, energy_weight, force_weight, nsims
82 -135.2392696114366688 1 1 246
ITEM: NUMBER OF ATOMS
2
ITEM: BOX BOUNDS xy xz yz pp pp pp
-1.293557877881866 3.2339088436403141 -0.646778938940933
-0.7921384663607722 3.1685711942636661 -0.646778938940933
0.0 3.067956985231227 -0.7921384663607722
ITEM: ATOMS id type x y z fx fy fz
1 2 0.0 0.0 0.0 0.0 0.0 0.0
2 2 0.9701754828792246 1.1882163639514474 1.5339784926156138 0.0 0.0 0.0
ITEM: TIMESTEP energy, energy_weight, force_weight, nsims
83 -135.5148271208852008 1 1 246
ITEM: NUMBER OF ATOMS
2
ITEM: BOX BOUNDS xy xz yz pp pp pp
-1.2288871632121301 3.2339068384167478 -0.614443581606065
-0.7447545444169074 3.1749980353665914 -0.614443581606065
0.0 3.0864142938290189 -0.7447545444169074
ITEM: ATOMS id type x y z fx fy fz
1 2 0.0 0.0 0.0 0.0 0.0 0.0
2 2 1.0025098376023092 1.2151217454748429 1.5432071469145102 0.0 0.0 0.0
ITEM: TIMESTEP energy, energy_weight, force_weight, nsims
84 -135.7525905640800376 1 1 246
ITEM: NUMBER OF ATOMS
2
ITEM: BOX BOUNDS xy xz yz pp pp pp
-1.1642066928119783 3.233907889052222 -0.5821033464059892
-0.698287331788269 3.1810872243585444 -0.5821033464059892
0.0 3.1034997553151458 -0.698287331788269
ITEM: ATOMS id type x y z fx fy fz
1 2 0.0 0.0 0.0 0.0 0.0 0.0
2 2 1.0348505981201219 1.2413999462851382 1.5517498776575732 0.0 0.0 0.0
ITEM: TIMESTEP energy, energy_weight, force_weight, nsims
85 -135.9562194414226324 1 1 246
ITEM: NUMBER OF ATOMS
2
ITEM: BOX BOUNDS xy xz yz pp pp pp
-1.0995305049158464 3.2339095834902772 -0.5497652524579232
-0.6527265195606704 3.186836889672914 -0.5497652524579232
0.0 3.1192751484988217 -0.6527265195606704
ITEM: ATOMS id type x y z fx fy fz
1 2 0.0 0.0 0.0 0.0 0.0 0.0
2 2 1.0671895392872155 1.2670551850561216 1.5596375742494112 0.0 0.0 0.0
ITEM: TIMESTEP energy, energy_weight, force_weight, nsims
86 -136.1292848168620822 1 1 246
ITEM: NUMBER OF ATOMS
2
ITEM: BOX BOUNDS xy xz yz pp pp pp