ITEM: TIMESTEP energy, energy_weight, force_weight, nsims
0 -1078.9265173348637744 1 1 299
ITEM: NUMBER OF ATOMS
16
ITEM: BOX BOUNDS pp pp pp
0.0 11.4132949064320002
0.0 11.4132949064320002
0.0 20.0000302628115847
ITEM: ATOMS id type x y z fx fy fz
1 2 -0.1627946732273835 0.1052088937769808 10.0852112603193156 1.0307482614927359 -0.401850233838945 -0.0065280338419262
2 2 2.9988592152778772 -0.0111633437479811 10.1985774318580127 -0.7489490585166322 -0.0369585960079369 -0.0881048027063554
3 2 5.6012080108819094 0.0398906070274705 10.1144433045514397 0.7515713278019338 0.0653417878122597 -0.1481884250951715
4 2 8.7410921806826406 -0.0495987556748815 9.8077348404591192 -1.0257006695122439 0.1309514846935736 0.0299528509852979
5 2 -0.1776376632531983 2.7603864075144148 9.7875768099572316 0.3993295231738704 0.3072958159721044 0.0158495725161693
6 2 2.6818823411595036 2.9577519510133806 9.751516755393384 0.1194666188532822 -0.0607914474052329 0.1613524791600246
7 2 5.8105027302170784 3.0247879386463095 9.7804187991261742 -0.0988972701560873 -0.9332213899336344 0.0537566489038961
8 2 8.6425007152924104 2.9592071461139508 9.9146910022985856 -0.401025166466013 -0.2343404740784301 -0.0210797129026389
9 2 0.1591846480484791 5.6121567846856496 9.9193870094042928 -0.0021748971354413 -0.1656979025535809 -0.0016174817211326
10 2 2.9334130996254148 5.7337768552085882 10.1485033560890106 0.0205400381080661 -0.0259874368086919 -0.0884174489903957
11 2 5.649664295736657 5.5473874774211388 10.0059311403575304 0.0906391402242706 0.8532680163302498 0.0328317164806917
12 2 8.7354802635771486 5.7355790144743146 9.9904191168856968 -0.0326350270010117 0.2094899795954175 -0.0487198555615041
13 2 -0.1681155513127621 8.4248446161087891 9.730546723662826 0.6995702289205926 0.1246623064420038 0.1667209449583475
14 2 2.8582314434177656 8.4809968857189446 10.2444135012143196 -0.0575526273065034 0.201135433251993 -0.1283628968747271
15 2 5.762195959525604 8.4109557775371524 10.0349791843112381 0.0190925063817941 0.0060878607841326 0.0246090677883466
16 2 8.6876585579191978 8.594072963674929 9.8614069216723994 -0.7640234430834746 -0.0393852042552823 0.0459456340115087
ITEM: TIMESTEP energy, energy_weight, force_weight, nsims
1 -1079.0550734601326896 1 1 299
ITEM: NUMBER OF ATOMS
16
ITEM: BOX BOUNDS pp pp pp
0.0 11.4132949064320002
0.0 11.4132949064320002
0.0 20.0000302628115847
ITEM: ATOMS id type x y z fx fy fz
1 2 0.1474175409999477 0.0915700063637946 10.2642455312229277 -0.667843830182573 0.0394124579609634 -0.09440606514818
2 2 2.7335605991663372 -0.0793452261895153 10.0061911407509481 0.6020400149258886 0.0924975344192073 0.0859494459636667
3 2 5.5328925928899696 -0.050243606837095 10.1135673032259295 -0.0970342479733934 -0.1217973249098816 -0.076053265476241
4 2 8.4201320666419228 0.0281771424649993 9.7829308029271846 0.073512500197552 0.1511955886956114 0.2302796719319401
5 2 -0.0258100251014053 2.95086516886684 10.1964234285987061 0.1937422228099061 -0.2544681070552457 -0.0459204371892752
6 2 3.0176124001386353 2.8055944686387924 10.2541815159946808 -0.8580638971988378 -0.1540217465526596 0.0018157138633983
7 2 5.5301305755226134 2.8067346567999448 9.7867548087134324 0.9088313802324608 0.1420475995622624 0.0834063666910991
8 2 8.5550018312217394 2.9412768598159462 9.8829309542412408 -0.1969615025158831 0.0160565464130874 7.3636427425271887e-04
9 2 -0.0573061537251951 5.642964691626581 10.0063491409900234 0.4103428484837919 0.0659082020916517 0.0762710380112592
10 2 2.8438529744946428 5.70966398705977 10.165565381906216 0.0830592676093109 -0.0374777019680334 -0.0140806527512047
11 2 5.8521943551807834 5.8530320910269156 10.2035994394570047 0.1099015966009254 -0.8850890317068608 -0.1633034331101048
12 2 8.7414516994721954 5.8797392011079666 9.802628832733026 -0.3647810803456978 0.05754902776047 0.1788974378579056
13 2 -0.1490005650034698 8.3999716225192014 10.2142374555537927 0.3699957941063101 0.0325275548408729 -0.0316382098602024
14 2 2.763988443386885 8.529659751211499 10.276087549141538 -0.1295990838267547 -0.0102808176921331 -0.0352927775257849
15 2 5.5666770871424998 8.3901116770495357 10.3142216068436401 0.0570875145369073 0.8682454702646226 -0.0453105712470519
16 2 8.6220640694329536 8.6752271971071124 10.2885775680406635 -0.4942292403494824 -0.002305252123935 -0.1513503691750458
ITEM: TIMESTEP energy, energy_weight, force_weight, nsims
2 -1079.1340336065429712 1 1 299
ITEM: NUMBER OF ATOMS
16
ITEM: BOX BOUNDS pp pp pp
0.0 11.4132949064320002
0.0 11.4132949064320002
0.0 20.0000302628115847
ITEM: ATOMS id type x y z fx fy fz
1 2 -0.0711048272670714 0.1448484083165098 9.800968830221212 -0.0895075972176413 -0.0529336384144118 0.2078557856962729
2 2 2.7174667120187772 0.1587406708766188 10.2991815840860088 0.1260830986834566 -0.0581617219174338 -0.1734130152552224
3 2 5.673149432665622 -0.1246925295117509 10.2341114856259488 -0.0594323616672092 0.2798757598421359 0.0125788707240014
4 2 8.5336612524056932 -0.0853668805821488 10.2214054663999843 -0.1135967877145986 0.566420450042361 -0.0595020385939978
5 2 -0.0014038352734911 3.0096002671143203 10.1728233928885885 0.1944050535009059 -0.7633870947668632 -0.0415343903476281
6 2 2.843615577960589 3.0252878409632111 10.2987335834081204 0.1257835650313949 -0.4316179653139558 -0.0132409300837084
7 2 5.8721094134630176 2.7019457722755198 10.2805175558447513 -0.0874661403958653 -0.0288732442857214 -0.0551586720838891
8 2 8.6733382968000986 2.993862474767841 10.2480835067675482 -0.0644547568254678 -0.1360039617722538 -0.0669893514538139
9 2 -0.0286781861113917 5.5500650364061874 10.2617595274612601 -0.1548635261036035 0.794243946027396 -0.1612655758343621
10 2 2.7762759966831494 5.6268046073685642 10.1399253431092902 0.0545130677917633 0.3936481539810762 -0.0446883640041428
11 2 5.614967879221104 5.5669350276073848 10.0064671411685744 -0.1727820662576609 0.0239547217415683 0.0542407878453828
12 2 8.3782715249136022 5.7861730094650366 9.87482094196967 0.1856118767622736 0.2314006734109003 0.1471877512978979
13 2 -0.0954562332794347 8.4595878271334596 9.7812188003366832 0.634047949585803 -0.0638600603986708 0.089324534590802
14 2 2.802478639129336 8.4358264884677574 9.8230188635859594 -0.0878955148155587 0.0922905605222892 0.1483601748630489
15 2 5.7086858676862892 8.6168025404810874 10.0572612180270369 0.1514673544211299 -0.3613103466382475 -0.0488880057833481
16 2 8.7370998101243718 8.7399154699777882 9.9215490126757046 -0.64191270055826 -0.4856862320601684 0.005132438422707
ITEM: TIMESTEP energy, energy_weight, force_weight, nsims
3 -1079.1283030604815856 1 1 299
ITEM: NUMBER OF ATOMS
16
ITEM: BOX BOUNDS pp pp pp
0.0 11.4132949064320002
0.0 11.4132949064320002
0.0 20.0000302628115847
ITEM: ATOMS id type x y z fx fy fz
1 2 -0.0480727981458916 0.1777917427344351 9.7605907691236204 -0.0253965970383592 -0.824263388614311 0.1068221849693874
2 2 2.8593533703070678 -0.1725507577134016 9.9884591139199408 0.0322563033362163 0.1810844191836018 -0.0346119491046183
3 2 5.7443900781420806 0.0298297875674507 9.8229188634346478 -0.1192143935205161 -0.2992312901947962 0.0930546927230849
4 2 8.4947373514567968 0.0131070278705465 10.1064932925219768 0.2309656425617258 -0.0978006941680678 -0.1472571711142556
5 2 -0.1458390823143881 2.7284154858225178 9.9411190422878644 0.1193239225641026 0.8705008429649524 0.1037551146385352
6 2 2.947254002358445 2.9503435812896162 10.1057112913386984 -0.3604109743507699 -0.0608030173746259 -0.0441198928413032
7 2 5.639122976561077 2.7018316393264566 10.0181691588753434 0.3153729401605294 0.2645365515314107 -0.0481490704047858
8 2 8.4965817399136778 2.7218391452974316 9.9132210000742678 -0.1613046566198671 0.1935843570053002 -0.0022785126391158
9 2 -0.1090871313861864 5.8170357002215196 10.2195414635794908 0.0272128251226194 -0.636953811676447 -0.1101381381974032
10 2 2.9300758521947738 5.8247157063640582 10.2813035570340805 -0.4525027885099314 -0.3729962728355451 -0.0584715399867335
11 2 5.5466205040034264 5.8164148169786092 9.788894811951554 0.3329906611103705 -0.2450190416072493 0.0738446868743447
12 2 8.4456932819143678 5.8640402139641702 9.7598207679585034 -0.0822318862425005 -0.093996745342101 0.1166157783948624
13 2 0.1097274172304373 8.4159376807638094 9.93410303167167 -0.1637927142602106 0.6310161033839916 -0.0331685311452416
14 2 2.8321372272731904 8.4339467187966673 10.0628392264673341 0.1526382353236952 0.2375088459190783 -0.0363471874031279
15 2 5.6453044170824002 8.552019537262689 9.9454650488639728 0.07370327613732 0.2161781932358281 -0.0394661940410328
16 2 8.6443782023045178 8.648086381819617 9.8444608960307232 0.0803902042255758 0.0366549485889801 0.0599157292774031
ITEM: TIMESTEP energy, energy_weight, force_weight, nsims
4 -1079.2198709796625728 1 1 299
ITEM: NUMBER OF ATOMS
16
ITEM: BOX BOUNDS pp pp pp
0.0 11.4132949064320002
0.0 11.4132949064320002
0.0 20.0000302628115847
ITEM: ATOMS id type x y z fx fy fz
1 2 0.0212412831503606 0.0443395093819977 10.03016517702698 -0.3785249184323525 -0.0309093017884474 0.0083316635150696
2 2 2.7044875130511828 -0.1261659858841713 9.7478227498038432 0.3592202959450212 -0.0661840815840655 0.2168628783134591
3 2 5.7655742948179088 0.0629705719872573 10.2926075741386196 -0.3634333074666361 -0.1477104568040278 -0.1826404515117363
4 2 8.4977698639134368 0.0714392368078298 10.0540192131214354 0.3787007819671251 0.0596388213432654 0.0200263314670196
5 2 -0.1606581044208994 2.837394190907093 10.2295414787108961 -0.0459016681278155 0.1219868152974949 -0.2100738773841144
6 2 2.8297153260940454 2.7543499158384028 9.8994629792564802 0.0223007303392402 0.0084517340863252 0.1441391929180745
7 2 5.7277494941685028 2.83013191135813 10.2594435239568256 -0.3159342122313023 0.0668214583424009 -0.1406412055049431
8 2 8.3897898221331744 3.024237817831819 10.049065205625336 0.2367794236264613 -0.1591714113742405 0.0338437031369272
9 2 -0.0707430258185375 5.8691453807758158 9.7749067907857424 0.2347202261849494 -0.1517177799808793 0.1913130434582512
10 2 3.0343157572341983 5.7702571697180174 10.1578493702308208 -0.2125547359323911 -0.2591693712852426 -0.151242897014907
11 2 5.7283760840588656 5.6980749274117786 9.7110986942352682 0.3151867922085186 -0.111816812201103 0.2092002161397322
12 2 8.5973417313361296 5.745531407632723 9.9027369842105024 -0.2290542836180126 -0.1968938824725422 -0.036201148678346
13 2 -0.0079984370704275 8.6038473094327976 10.0613612242309163 0.2024667510634736 0.2625891971273638 -0.0268850093231529
14 2 2.7364972399457624 8.4573542453202696 10.1690253871416818 -0.0649116420612734 0.2097087805721595 -0.0930179259314585
15 2 5.543141731715946 8.5116849530633588 10.0822992559130498 0.08621709792229 0.0658801770546777 -0.0203297217755456
16 2 8.7150128018214446 8.394566286051516 9.9237830160560598 -0.2252770742768649 0.3284963707772917 0.0373152081756703
ITEM: TIMESTEP energy, energy_weight, force_weight, nsims
5 -1079.1862686651977584 1 1 299
ITEM: NUMBER OF ATOMS
16
ITEM: BOX BOUNDS pp pp pp
0.0 11.4132949064320002
0.0 11.4132949064320002
0.0 20.0000302628115847
ITEM: ATOMS id type x y z fx fy fz
1 2 0.0761358076618266 -0.0893535444929655 10.2778875518651898 0.1141901985892408 0.3768123058517668 -0.088712868875562
2 2 2.996758027685603 0.1237315300806293 10.2576355212210686 -0.1850750301824413 -0.502751165583458 -0.093895443832305
3 2 5.7496481831054728 -0.0772531692331663 10.1804034043581968 0.1410433262189554 -0.0032257074667509 -0.0921638050798288
4 2 8.5683565275917548 -0.1180819491019455 9.9274510216062594 0.0823213606724725 0.1726617385759744 0.1263396948935488
5 2 0.1713706230200765 2.912629489600802 10.3156876090619037 -0.3362845028413242 -0.0882449278912254 -0.0618278595524092
6 2 2.82968793418627 2.72584635313908 9.9123349987336286 0.3395405493389277 0.5094494065306758 0.1027025045342089
7 2 5.8350013677337342 2.9957890389480468 10.1478353550782341 -0.2815778308950525 0.0480464833428351 -0.0819601205169819
8 2 8.5716104579695802 2.7571279118186288 10.0844132591118321 0.3375721118795427 -0.2281700808459612 0.0341000422365885
9 2 -0.1164327279879661 5.7687220815531024 10.3095055997076681 0.1103895921988764 0.0756989673023862 -0.122540888276201
10 2 2.916168752351287 5.6080320199064656 10.0818192551867441 -0.5567353572187486 -0.2310705436175551 -0.0440733558533005
11 2 5.540483575332238 5.833845200959713 9.8603229200321554 0.4285362396885393 -0.3713916466359602 0.1066738322507269
12 2 8.3979663066041415 5.531424843165003 10.2259594732908284 -0.1859211806107115 0.1873730832143096 -0.1309867088226143
13 2 -0.0090438948838567 8.6263486203408278 10.0462352013431495 -0.3338810345327647 -0.2420735845102384 0.0014616727999744
14 2 2.6927055687192732 8.4307407242574524 9.6807886483719782 0.3124992168737547 0.1196386257315905 0.2395078795197468
15 2 5.7633258757213418 8.4568098311532332 9.8773309457676516 -0.2209555621533874 0.3995614367825911 0.014494086324179
16 2 8.5049716529993962 8.5303685168251864 9.8859189587625044 0.2343379029741206 -0.222314905001842 0.0908810811397984
ITEM: TIMESTEP energy, energy_weight, force_weight, nsims
6 -1079.2309451282915232 1 1 299
ITEM: NUMBER OF ATOMS
16
ITEM: BOX BOUNDS pp pp pp
0.0 11.4132949064320002
0.0 11.4132949064320002
0.0 20.0000302628115847
ITEM: ATOMS id type x y z fx fy fz
1 2 -0.1519006832391942 0.1770407479295919 10.1164453075807472 0.1011392731140076 -0.15532606776889 -0.1775146979602342
2 2 2.9180508046813572 0.0155859955242235 9.8934909702200056 -0.1038273626696334 0.1322630050018708 0.1207141186642717
3 2 5.7828083701266212 -0.1043163741152979 10.2052094418931603 -0.1139492861154368 0.0741714742320875 -0.0916606399664515
4 2 8.4787541732698292 0.055719705733201 9.711750695221836 0.0695486286835317 -0.110436643407741 0.196036933406172
5 2 0.1095493698298969 2.8856347644881088 9.897796976735588 -0.6400810458481424 0.1010541695613618 0.1276918386499367
6 2 2.6828136660238684 2.9901246206859846 10.1079372947069501 0.7195091428410878 -0.0064143910314444 -0.0290910168207396
7 2 5.729762799389997 2.84233957159005 10.2719435428710817 -0.2079737993840808 -0.3216536337678777 -0.0705768132969174
8 2 8.5812318655757026 2.8481158401421954 10.3128796048130056 0.206761266591701 0.1038340475408382 -0.2078164478003369
9 2 -0.083283954261725 5.6930587843004022 10.1594553726609256 0.1323450232293451 0.0505692508913574 -0.1753230886467809
10 2 2.924225397225737 5.8460711224634824 9.8359608831690278 -0.0303806827424056 -0.1232610545933036 0.1347621183907452
11 2 5.7621423170395438 5.558346523190295 10.0478152037339115 -0.1352670832771392 0.2227291099061092 0.0250602965946712
12 2 8.491230045932051 5.8487829213332514 10.0660072312609632 0.0484408907439188 -0.1375684787446099 0.0078467532422901
13 2 -0.1718830799613753 8.6620962013172634 9.7170747032777954 0.4353728060476104 0.0576032780614013 0.1588299687219333
14 2 2.7733462038806684 8.5951195628178478 9.8708449359534232 -0.0590698359595639 0.0918210768753669 0.0171826901006666
15 2 5.7902795129723712 8.4641497211075604 10.1624493771912672 -0.0443980863275956 -0.1629730462063287 -0.1435151859021487
16 2 8.5896879757718772 8.593336806153463 9.7278327195561634 -0.3781701060376357 0.1835879034498024 0.1073731726229222
ITEM: TIMESTEP energy, energy_weight, force_weight, nsims
7 -1079.1159331137403120 1 1 299
ITEM: NUMBER OF ATOMS
16
ITEM: BOX BOUNDS pp pp pp
0.0 11.4132949064320002
0.0 11.4132949064320002
0.0 20.0000302628115847
ITEM: ATOMS id type x y z fx fy fz
1 2 0.0805630247560316 0.0096876047165795 9.9754350942127968 -0.7941971519289622 -0.0779121738920396 -0.0255907154137296
2 2 2.6751701824250312 0.1279521665370279 9.8248628663761918 0.7519940173504224 0.0052159993127671 0.0816747279386228
3 2 5.702059308663614 -0.1346962824972385 10.2414674967566129 -0.3905348037726523 0.2853319002974142 -0.0876376330533117
4 2 8.4347935852787259 -0.1099944883312478 10.0637352278231127 0.3720979289897913 0.0936730433095297 -0.0285035194860093
5 2 -0.1092480588443671 2.859734574356943 10.0183271591144223 0.6945581181795722 -0.1591621553987261 -0.050554595596793
6 2 2.9748342294998378 2.966642907745491 9.7965388235180004 -0.6763708976251676 -0.0967303434440056 0.0411345836274944
7 2 5.5762596895459398 2.8581903555561028 10.2185934621450336 0.6590853633521194 -0.008862339444559 -0.0762342712196327
8 2 8.7110489645004404 2.7230055840368688 9.7870688091885576 -0.627615560824192 -0.0820112854927418 0.1382027701777738
9 2 -0.063080139618359 5.5530598849896356 9.779750798115396 0.2170400274003865 0.1742080007077327 0.049101664551471
10 2 2.9944434114785788 5.7165747371256154 9.8874169610291888 -0.1648314404012654 0.0475420326773031 0.0224344277633363
11 2 5.750549833403082 5.8755836204325354 10.2618335275732324 0.2130571297144756 -0.1827062717820606 -0.099241283912704
12 2 8.5943446000937006 5.552372804636268 9.9814031032432204 -0.1837899922485324 0.0053820926511635 0.0299286826047882
13 2 0.1245030688163041 8.4386798121943674 9.7230967123899284 -0.1416789032042741 0.0177719872084136 0.1678956825173771
14 2 2.91567798067031 8.5272857858709604 9.9340750316293018 -0.1105613419667538 0.1739796866450454 -0.0132537856052561
15 2 5.5767447545794626 8.5889050237412956 10.2450695022069436 0.185890070248566 -0.0365500475331508 -0.0225257019663251
16 2 8.4437815550175408 8.5037858116586166 10.2068434443656297 -0.0041423061531025 -0.1591698687116547 -0.1268310329271022
ITEM: TIMESTEP energy, energy_weight, force_weight, nsims
8 -1079.2020416466286864 1 1 299
ITEM: NUMBER OF ATOMS
16
ITEM: BOX BOUNDS pp pp pp
0.0 11.4132949064320002
0.0 11.4132949064320002
0.0 20.0000302628115847
ITEM: ATOMS id type x y z fx fy fz
1 2 0.1146020354849744 -0.1324284607993305 10.0571672178848015 -0.1923579402496489 0.2302634739747899 -0.0175827539312313
2 2 2.8725071926867308 -0.0294988020151641 9.9139570011879404 -0.0035470955054436 -5.8929710774693832e-04 0.0238994429989131
3 2 5.6310195371775098 0.1389534414973377 10.1284933258110677 -0.0146259839752584 -0.1502360525672905 -0.0785485222086511
4 2 8.4285242623866221 -0.0543192944481818 10.2446595015865576 0.1198967646042685 0.0583753806855567 -0.1131357887118978
5 2 0.1622080298691929 2.7506371710053408 10.0422351952905888 -0.1031516764570858 -0.1506685123121554 -0.0430356581539695
6 2 2.9887310573779092 2.9258049972407872 9.8005388295705594 0.1059145851481193 -0.051939906598774 0.0589721339958013
7 2 5.8319197781089978 2.885479543677382 9.8080988410099046 -0.3572744842035601 0.2934470768296204 0.0978264052111632
8 2 8.4697856061323566 2.7946491188235236 10.1001552829316896 0.4607128387911598 -0.1045405870051002 0.0412621104012477
9 2 -0.0715225538606468 5.6399561470892464 9.8545709113285724 -0.0461086420247336 0.1141626877731288 0.0713836258292515
10 2 2.9732900106989972 5.7780045143005038 9.8364008838348092 -0.0169142668107505 -0.5041578167512082 0.0457651424889789
11 2 5.825777142790357 5.8872126266126976 10.1789274021248009 -0.4522014550848532 -0.519388010239209 -0.0945369343575357
12 2 8.4190831848400212 5.634813316404408 10.2932315750828192 0.5237100365835484 -0.0415271912555614 -0.1425715906205469
13 2 0.1282283682737635 8.5669515509887742 9.7243627143055634 0.1179789778997814 -0.280851493927607 0.1204744917426225
14 2 3.0155180605233047 8.3799561272417922 9.8817809525011278 -0.4751310775382072 0.5644633254419378 -0.0310753951268438
15 2 5.6626754519299896 8.4789424926357864 9.882886954174662 0.4353278117221935 0.6294811541111952 0.0473581987191708
16 2 8.6730153005542476 8.5079379683455764 10.0276951732895245 -0.1022283928995294 -0.0862944881620072 0.0135450917235271
ITEM: TIMESTEP energy, energy_weight, force_weight, nsims
9 -1079.0860639060167616 1 1 299
ITEM: NUMBER OF ATOMS
16
ITEM: BOX BOUNDS pp pp pp
0.0 11.4132949064320002
0.0 11.4132949064320002
0.0 20.0000302628115847
ITEM: ATOMS id type x y z fx fy fz
1 2 0.0046292324140488 0.0896468661720608 10.2271474750884384 -0.2277854436412537 -0.5171958867048938 -0.1167312209783608
2 2 2.7237075016736144 -0.1424162351719492 9.6880386593422436 0.1656997023265976 0.0270960969869662 0.2342265741575174
3 2 5.8263523728536396 -0.1534848485722069 10.0743372438654255 -0.1551152372155076 0.8018400165995056 -0.0894960272482484
4 2 8.5774985768118076 -0.1043928431911709 10.2272534752488316 0.1642593696923924 0.3747798478950742 -0.1178771621691235
5 2 0.1352543926181631 2.7378131928484738 10.2871415658677936 -0.1104150461315409 0.5190429680408686 -0.1582375862890149
6 2 2.9009730915128622 2.9942790600319258 10.1881894161395081 0.0347883268602528 -0.6103750208765606 -0.1181299017227515
7 2 5.7203753643294562 2.934374099056536 9.7986708267440168 0.0665383797579204 0.0298548919111044 0.1485172693363619
8 2 8.6238673700281688 2.96009281779869 9.7376607344273084 0.1275828238272122 -0.481744986264072 0.2107742461980335
9 2 -0.0256125750995241 5.6983488464895338 10.1161953072024638 0.0269413165075318 -0.3004129697354615 0.0104839349325869
10 2 2.9137160352758942 5.5754721721973964 10.1516253608130356 -0.1888640666034127 0.5535484734270718 -0.0781047496048243
11 2 5.6287174755948826 5.8753587785228776 10.0694772365115632 0.0401632204193496 0.0735032442220376 -0.0707267086781636
12 2 8.3872127001433015 5.5836874618710458 10.0729772418075552 0.0287673147881683 0.462147000775022 -0.0518488895062162
13 2 -0.0468995114295104 8.537494978164764 9.9159890042626416 0.1198615404752277 0.2701952950062808 0.0392041985118906
14 2 2.9631481568451416 8.3967656279799847 9.7356427313737904 -0.0309702369605835 -0.0836801893000653 0.1181928937783352
15 2 5.8381000773008306 8.7234769013240552 9.9206310112866394 -0.1439075364197847 -0.7433548497599316 -0.0306678750937814
16 2 8.5423056819678252 8.6405273566030872 9.8738389404837684 0.0824558294278615 -0.3752436751125155 0.0704210043757591
ITEM: TIMESTEP energy, energy_weight, force_weight, nsims
10 -1079.0272010114485968 1 1 299
ITEM: NUMBER OF ATOMS
16
ITEM: BOX BOUNDS pp pp pp
0.0 11.4132949064320002
0.0 11.4132949064320002
0.0 20.0000302628115847
ITEM: ATOMS id type x y z fx fy fz
1 2 0.06325932834839 0.1273369899415712 10.1755713970466992 -0.035263981157518 -0.6073316047053562 -0.0641557373942681
2 2 2.9741163332502234 -0.1242736615886849 9.9628890752289366 0.0917830245315857 0.2959603312921974 0.0282104135947216
3 2 5.8201309858001436 -0.0727255151437847 9.7876688100964416 -0.5598332808013154 -0.0085496931605187 0.0897626507651479
4 2 8.424897117265358 -0.1093439305215811 9.994147122526682 0.6316339397495746 0.5381627281283438 0.0383454496725037
5 2 -0.1596092226189983 2.6890065198400986 9.8827969540384792 -0.0338802128181227 0.7203141556004052 -0.0073258475091769
6 2 2.8738014603291204 2.9720162869874396 9.9052069879479596 -0.3556194643595082 -0.1390072687162294 0.0500624862319467
7 2 5.538528477914766 2.726693219621137 10.0917092701517035 0.2215158057824365 0.0933884220624634 -0.1359641096554559
8 2 8.3776426523642584 2.8176560386959096 9.9463570502136954 -0.0084201095033178 0.018678301477527 0.012143839874827
9 2 -0.1357565775940461 5.6860521625573438 9.8021488320067186 0.2288205702362752 -0.0784958145703055 0.1577249080896923
10 2 2.7825875487664066 5.7358015737249898 10.231323481407312 0.0466940824760162 0.1680550909845687 -0.1925795694411313
11 2 5.8177159325979436 5.6940779915355462 9.7630067727793702 -0.2105171357670794 -0.1547282860169216 0.2064655895961037
12 2 8.5870184060932626 5.8720717495898258 9.9652650788241566 -0.1089070934539947 0.0074132650557013 -0.0584651122259597
13 2 -0.1054839541842258 8.7192847981049226 10.1479673552779684 0.7410814793294348 -0.0478670202620291 -0.0288791578256333
14 2 2.9899705412047478 8.5745391094425704 10.2028054382555684 -0.8395779143236646 -0.2848541891167014 -0.0094806900310038
15 2 5.5475666661511696 8.5368900735347228 9.9957171249023116 0.7907313033197002 0.0037229590402163 -0.0864235575983462
16 2 8.7140826182865698 8.713418364523017 9.9260590194999664 -0.6002412703509332 -0.5248616342037922 5.581867456014849e-04
ITEM: TIMESTEP energy, energy_weight, force_weight, nsims
11 -1079.0568790603788336 1 1 299
ITEM: NUMBER OF ATOMS
16
ITEM: BOX BOUNDS pp pp pp
0.0 11.4132949064320002
0.0 11.4132949064320002
0.0 20.0000302628115847
ITEM: ATOMS id type x y z fx fy fz
1 2 0.0268703201982129 -0.1255097214270514 9.7292407216866632 0.1952149513584115 0.4447884471395828 0.1398382496290732
2 2 2.904898123631185 0.1316660526995809 9.8480529014659234 0.0311820959556898 -0.5292942180334418 0.0582141724453484
3 2 5.8046773844968352 0.1154112380938404 10.2817255576726243 0.0895070829967794 -0.5036631362820524 -0.1291136593331133
4 2 8.7242016455506128 -0.1513905089568767 10.1423533467831941 -0.1138950358145055 0.7372867864789824 -0.0031035800120477
5 2 0.1481753837817347 2.8052828856878468 10.081571254811486 -0.6128905893330162 -0.0228938841034514 -0.0420594098476365
6 2 2.766984433299823 2.765217655248308 10.0076351429359196 0.6055781115662488 0.5322975249774174 -0.0280682315264039
7 2 5.7105405281085836 2.7128945460792604 9.8346248811474712 -0.2253094701911652 0.4797163849638438 0.1006741603444115
8 2 8.5293641468734212 2.9284836975553268 10.2754095481156291 0.1829361285073336 -0.4620950644679694 -0.1254701474160618
9 2 -0.1262618575613853 5.853455524267944 10.0120771496572925 0.0141814400401387 -0.0339172367201801 0.0099871975799835
10 2 2.9918320496039872 5.8829680222369962 9.9834371063209488 -0.3426924661119948 -0.4809487152594072 -0.0098802396407065
11 2 5.6481565994795178 5.549254692467831 9.9684370836238382 0.1078724810798352 -0.1613720195527771 0.0128128412161697
12 2 8.382469334780188 5.619839073487169 10.0322811802287859 0.0533784394599625 0.4951898049195272 0.0337686268910886
13 2 -0.0191994446915999 8.6604492628622652 10.0057531400881921 0.2259193361333885 -0.2883737738060329 -0.0241431836874577
14 2 3.0290530869528429 8.5207311306061958 9.8089648423202842 -0.082469970501564 0.5975750351819386 0.0918843260413816
15 2 5.850976556614267 8.3948036825855699 10.1499193582316156 0.0818706460870099 0.0011045464113791 -0.0526233061242502
16 2 8.6793782124645826 8.6677206730471532 10.1383053406580039 -0.2103831812325522 -0.8054004818473588 -0.032717816559779
ITEM: TIMESTEP energy, energy_weight, force_weight, nsims
12 -1079.1346081713716112 1 1 299
ITEM: NUMBER OF ATOMS
16
ITEM: BOX BOUNDS pp pp pp
0.0 11.4132949064320002
0.0 11.4132949064320002
0.0 20.0000302628115847
ITEM: ATOMS id type x y z fx fy fz
1 2 -0.1217227901770973 -0.1809281161747227 10.2122354525244887 -0.0488743789305075 0.0897320546238643 -0.0727910483282946
2 2 2.8414630305412358 -0.0053174540969067 9.8979669769928194 0.0344589683982006 -0.0789627271129183 0.1442713476795849
3 2 5.7505703773339124 -0.1799614100961478 9.8160888530998954 -0.276184682495358 1.0136902699510819 0.0732808436992623
4 2 8.4261525797050663 0.1786271959215859 10.0337571824621818 0.2209023402941799 -0.3185081447555844 0.0129604226035374
5 2 0.1152000921380714 2.8256727370381874 10.1820254068125085 -0.5757113925753204 -0.1293424876166625 -0.0652440858484971
6 2 2.735861519419474 2.8856861243151878 10.3176856120851604 0.591728601092472 -0.0220482478960432 -0.1708611942280024
7 2 5.6645483736241352 2.9027695441311354 10.0563912167106047 -0.2975135354055914 -0.2493752636389057 0.0073672422885605
8 2 8.4601824597980838 2.8803287236861088 9.9522310591018818 0.2621680502414609 0.3695435368582617 0.1297777755762678
9 2 -0.1416800776504843 5.6165908497567978 10.1291013267310568 0.633924793689376 -0.0483665858293731 -0.0149044345719818
10 2 2.9127995476949078 5.6397130439077392 9.8710689362923674 -0.1864132899755577 -0.1333130440018876 0.2004440633031572
11 2 5.7233496689820732 5.7148775801730284 10.2590515233636737 0.1835709341613595 0.2720686016062128 -0.1534962128317893
12 2 8.6672675652393672 5.7406373867768448 10.2694635391184957 -0.5972880999409936 -0.0478323103538503 -0.0620908835232753
13 2 -0.0434367177548989 8.4195568365786393 10.2284734770948625 0.1821252022081042 -0.0822938498563604 -0.0417246520665342
14 2 2.9542183949103498 8.4116793804342205 10.1164033075171975 -0.0276442564257605 0.1552674465906324 -0.1031257083035594
15 2 5.7887375768305126 8.7208472781776134 9.8042328351601036 7.2222320055023985e-04 -1.0044769747682709 0.1757056689680407
16 2 8.593030929849972 8.5935810506644614 10.1635113787982245 -0.0999712204261828 0.2142174690893717 -0.0595694015269078
ITEM: TIMESTEP energy, energy_weight, force_weight, nsims
13 -1079.2006055746971936 1 1 299
ITEM: NUMBER OF ATOMS
16
ITEM: BOX BOUNDS pp pp pp
0.0 11.4132949064320002
0.0 11.4132949064320002
0.0 20.0000302628115847
ITEM: ATOMS id type x y z fx fy fz
1 2 -0.0803267695514684 -0.1373681348348343 9.9110449967816744 -0.0679460593673944 -0.0731633442323162 -0.0281098834162185
2 2 2.7761652877225572 -0.1691975316698918 9.8752009425446642 -0.0856717666982362 0.5127375918321486 0.0048745566604599
3 2 5.6154209870288892 -0.0653730705650612 10.1118073005628038 -0.061054471376099 0.0333701057231097 -0.0382050673772027
4 2 8.4137623067546432 0.0041281887676565 9.9530670603668678 0.0473486856332255 0.038972027792739 0.0234710970209435
5 2 0.0977640015095152 2.6778363281151738 9.7252647156704164 -0.0967136312659936 0.1061377570021875 0.1291347423884515
6 2 2.8273185341636952 2.8181217011280918 9.7672567792102178 0.2154472282806254 -0.12184540456047 0.107475245464011
7 2 5.7999762483248754 3.0318687468062593 10.2454955028515418 0.0468046399613265 -0.1116322069116779 -0.2649877803377352
8 2 8.703455699399191 2.7556624447526428 9.8402588896725086 -0.0207894352260916 0.15243203275807 0.0820182274743776
9 2 -0.1318144255333645 5.7762308882720436 10.2866175650749092 -0.1584538161614474 -0.3384311178293605 -0.2868007721894553
10 2 2.6903156247658662 5.6721473453728378 9.7331487276000158 0.0894093810330168 0.1686266474725798 0.1158349340160546
11 2 5.842656264627478 5.7653665728506108 9.7243827143358264 -0.7615078746270192 -0.0373203503842894 0.0921699757301717
12 2 8.3845397064762146 5.6547740278662664 9.9210990119947908 0.7931980207942744 -0.0937249796165824 0.1184402340129131