ITEM: TIMESTEP energy, energy_weight, force_weight, nsims
0 -68.0923351270322996 1 1 594
ITEM: NUMBER OF ATOMS
1
ITEM: BOX BOUNDS xy xz yz pp pp pp
0.0 5.1675593340539905 1.2918898335134976
0.0 2.983491772569435 1.2918898335134976
0.0 2.1096472639981201 0.745872943142359
ITEM: ATOMS id type x y z fx fy fz
1 2 0.0 0.0 0.0 0.0 0.0 0.0
ITEM: TIMESTEP energy, energy_weight, force_weight, nsims
1 -68.2712828871190425 1 1 594
ITEM: NUMBER OF ATOMS
1
ITEM: BOX BOUNDS xy xz yz pp pp pp
0.0 5.2707121586978607 1.3176780396744652
0.0 3.0430470836452432 1.3176780396744652
0.0 2.1517592283154987 0.760761770911311
ITEM: ATOMS id type x y z fx fy fz
1 2 0.0 0.0 0.0 0.0 0.0 0.0
ITEM: TIMESTEP energy, energy_weight, force_weight, nsims
2 -68.2877172371579207 1 1 594
ITEM: NUMBER OF ATOMS
1
ITEM: BOX BOUNDS xy xz yz pp pp pp
0.0 5.2820455017905097 1.3205113754476274
0.0 3.0495903923306029 1.3205113754476274
0.0 2.1563860462583131 0.7623975980826508
ITEM: ATOMS id type x y z fx fy fz
1 2 0.0 0.0 0.0 0.0 0.0 0.0
ITEM: TIMESTEP energy, energy_weight, force_weight, nsims
3 -68.3035194706460658 1 1 594
ITEM: NUMBER OF ATOMS
1
ITEM: BOX BOUNDS xy xz yz pp pp pp
0.0 5.2933560184116733 1.3233390046029183
0.0 3.0561205221465055 1.3233390046029183
0.0 2.1610035453331662 0.7640301305366264
ITEM: ATOMS id type x y z fx fy fz
1 2 0.0 0.0 0.0 0.0 0.0 0.0
ITEM: TIMESTEP energy, energy_weight, force_weight, nsims
4 -68.3187045537523403 1 1 594
ITEM: NUMBER OF ATOMS
1
ITEM: BOX BOUNDS xy xz yz pp pp pp
0.0 5.3046437085613505 1.3261609271403379
0.0 3.0626374730929502 1.3261609271403379
0.0 2.1656117255400576 0.7656593682732376
ITEM: ATOMS id type x y z fx fy fz
1 2 0.0 0.0 0.0 0.0 0.0 0.0
ITEM: TIMESTEP energy, energy_weight, force_weight, nsims
5 -68.3332869084213002 1 1 594
ITEM: NUMBER OF ATOMS
1
ITEM: BOX BOUNDS xy xz yz pp pp pp
0.0 5.3159085722395423 1.3289771430598856
0.0 3.0691412451699391 1.3289771430598856
0.0 2.1702105868789881 0.7672853112924848
ITEM: ATOMS id type x y z fx fy fz
1 2 0.0 0.0 0.0 0.0 0.0 0.0
ITEM: TIMESTEP energy, energy_weight, force_weight, nsims
6 -68.3472805484292252 1 1 594
ITEM: NUMBER OF ATOMS
1
ITEM: BOX BOUNDS xy xz yz pp pp pp
0.0 5.3271506094462495 1.3317876523615624
0.0 3.0756318383774706 1.3317876523615624
0.0 2.1748001293499573 0.7689079595943676
ITEM: ATOMS id type x y z fx fy fz
1 2 0.0 0.0 0.0 0.0 0.0 0.0
ITEM: TIMESTEP energy, energy_weight, force_weight, nsims
7 -68.360699351496379 1 1 594
ITEM: NUMBER OF ATOMS
1
ITEM: BOX BOUNDS xy xz yz pp pp pp
0.0 5.3383584069457264 1.3345896017364314
0.0 3.0821026632808168 1.3345896017364314
0.0 2.1793756935189839 0.7705256658202042
ITEM: ATOMS id type x y z fx fy fz
1 2 0.0 0.0 0.0 0.0 0.0 0.0
ITEM: TIMESTEP energy, energy_weight, force_weight, nsims
8 -68.373556787174735 1 1 594
ITEM: NUMBER OF ATOMS
1
ITEM: BOX BOUNDS xy xz yz pp pp pp
0.0 5.3495547912094619 1.3373886978023655
0.0 3.0885668987494346 1.3373886978023655
0.0 2.1839465982540305 0.7721417246873584
ITEM: ATOMS id type x y z fx fy fz
1 2 0.0 0.0 0.0 0.0 0.0 0.0
ITEM: TIMESTEP energy, energy_weight, force_weight, nsims
9 -68.3858659168480472 1 1 594
ITEM: NUMBER OF ATOMS
1
ITEM: BOX BOUNDS xy xz yz pp pp pp
0.0 5.360728349001711 1.3401820872504278
0.0 3.0950179553485957 1.3401820872504278
0.0 2.1885081841211149 0.7737544888371488
ITEM: ATOMS id type x y z fx fy fz
1 2 0.0 0.0 0.0 0.0 0.0 0.0
ITEM: TIMESTEP energy, energy_weight, force_weight, nsims
10 -68.3976399379561144 1 1 594
ITEM: NUMBER OF ATOMS
1
ITEM: BOX BOUNDS xy xz yz pp pp pp
0.0 5.3718676670867307 1.3429669167716829
0.0 3.1014492436435708 1.3429669167716829
0.0 2.1930557916862581 0.7753623109108926
ITEM: ATOMS id type x y z fx fy fz
1 2 0.0 0.0 0.0 0.0 0.0 0.0
ITEM: TIMESTEP energy, energy_weight, force_weight, nsims
11 -68.1151773103019878 1 1 594
ITEM: NUMBER OF ATOMS
1
ITEM: BOX BOUNDS xy xz yz pp pp pp
0.0 5.1791209418614983 1.2947802354653744
0.0 2.9901668699493644 1.2947802354653744
0.0 2.1143672706205488 0.747541717487341
ITEM: ATOMS id type x y z fx fy fz
1 2 0.0 0.0 0.0 0.0 0.0 0.0
ITEM: TIMESTEP energy, energy_weight, force_weight, nsims
12 -68.4088913676583701 1 1 594
ITEM: NUMBER OF ATOMS
1
ITEM: BOX BOUNDS xy xz yz pp pp pp
0.0 5.382995571936009 1.3457488929840023
0.0 3.1078739425038178 1.3457488929840023
0.0 2.1975987398174199 0.7769684856259544
ITEM: ATOMS id type x y z fx fy fz
1 2 0.0 0.0 0.0 0.0 0.0 0.0
ITEM: TIMESTEP energy, energy_weight, force_weight, nsims
13 -68.4196324510020731 1 1 594
ITEM: NUMBER OF ATOMS
1
ITEM: BOX BOUNDS xy xz yz pp pp pp
0.0 5.394100650313801 1.3485251625784505
0.0 3.1142854624946086 1.3485251625784505
0.0 2.2021323690806214 0.778571365623652
ITEM: ATOMS id type x y z fx fy fz
1 2 0.0 0.0 0.0 0.0 0.0 0.0
ITEM: TIMESTEP energy, energy_weight, force_weight, nsims
14 -68.429875296978409 1 1 594
ITEM: NUMBER OF ATOMS
1
ITEM: BOX BOUNDS xy xz yz pp pp pp
0.0 5.4051714889843652 1.3512928722460911
0.0 3.1206772141812134 1.3512928722460911
0.0 2.2066520200418798 0.7801693035453034
ITEM: ATOMS id type x y z fx fy fz
1 2 0.0 0.0 0.0 0.0 0.0 0.0
ITEM: TIMESTEP energy, energy_weight, force_weight, nsims
15 -68.439631742466375 1 1 594
ITEM: NUMBER OF ATOMS
1
ITEM: BOX BOUNDS xy xz yz pp pp pp
0.0 5.4162309144191863 1.3540577286047966
0.0 3.1270623764330896 1.3540577286047966
0.0 2.2111670115691582 0.7817655941082724
ITEM: ATOMS id type x y z fx fy fz
1 2 0.0 0.0 0.0 0.0 0.0 0.0
ITEM: TIMESTEP energy, energy_weight, force_weight, nsims
16 -68.4489134882889374 1 1 594
ITEM: NUMBER OF ATOMS
1
ITEM: BOX BOUNDS xy xz yz pp pp pp
0.0 5.427256100146777 1.3568140250366943
0.0 3.1334277703807803 1.3568140250366943
0.0 2.215668024794494 0.7833569425951952
ITEM: ATOMS id type x y z fx fy fz
1 2 0.0 0.0 0.0 0.0 0.0 0.0
ITEM: TIMESTEP energy, energy_weight, force_weight, nsims
17 -68.4577315549886124 1 1 594
ITEM: NUMBER OF ATOMS
1
ITEM: BOX BOUNDS xy xz yz pp pp pp
0.0 5.4382698726386272 1.3595674681596568
0.0 3.1397865748937433 1.3595674681596568
0.0 2.2201643785858498 0.7849466437234358
ITEM: ATOMS id type x y z fx fy fz
1 2 0.0 0.0 0.0 0.0 0.0 0.0
ITEM: TIMESTEP energy, energy_weight, force_weight, nsims
18 -68.4660970991640028 1 1 594
ITEM: NUMBER OF ATOMS
1
ITEM: BOX BOUNDS xy xz yz pp pp pp
0.0 5.4492608186589902 1.3623152046647478
0.0 3.1461322005372487 1.3623152046647478
0.0 2.2246514135092435 0.786533050134312
ITEM: ATOMS id type x y z fx fy fz
1 2 0.0 0.0 0.0 0.0 0.0 0.0
ITEM: TIMESTEP energy, energy_weight, force_weight, nsims
19 -68.4740208692455212 1 1 594
ITEM: NUMBER OF ATOMS
1
ITEM: BOX BOUNDS xy xz yz pp pp pp
0.0 5.4602175249721254 1.3650543812430314
0.0 3.1524580578765686 1.3650543812430314
0.0 2.2291244701306954 0.788114514469142
ITEM: ATOMS id type x y z fx fy fz
1 2 0.0 0.0 0.0 0.0 0.0 0.0
ITEM: TIMESTEP energy, energy_weight, force_weight, nsims
20 -68.4815133415513202 1 1 594
ITEM: NUMBER OF ATOMS
1
ITEM: BOX BOUNDS xy xz yz pp pp pp
0.0 5.4711628180495176 1.3677907045123794
0.0 3.1587773257811609 1.3677907045123794
0.0 2.2335928673181669 0.7896943314452902
ITEM: ATOMS id type x y z fx fy fz
1 2 0.0 0.0 0.0 0.0 0.0 0.0
ITEM: TIMESTEP energy, energy_weight, force_weight, nsims
21 -68.4885849923996518 1 1 594
ITEM: NUMBER OF ATOMS
1
ITEM: BOX BOUNDS xy xz yz pp pp pp
0.0 5.4820852846554242 1.3705213211638561
0.0 3.1650834148162948 1.3705213211638561
0.0 2.2380519456376766 0.7912708537040736
ITEM: ATOMS id type x y z fx fy fz
1 2 0.0 0.0 0.0 0.0 0.0 0.0
ITEM: TIMESTEP energy, energy_weight, force_weight, nsims
22 -68.1372390758929925 1 1 594
ITEM: NUMBER OF ATOMS
1
ITEM: BOX BOUNDS xy xz yz pp pp pp
0.0 5.190659723197518 1.2976649307993795
0.0 2.996828788459836 1.2976649307993795
0.0 2.1190779583750152 0.749207197114959
ITEM: ATOMS id type x y z fx fy fz
1 2 0.0 0.0 0.0 0.0 0.0 0.0
ITEM: TIMESTEP energy, energy_weight, force_weight, nsims
23 -68.4952456178283172 1 1 594
ITEM: NUMBER OF ATOMS
1
ITEM: BOX BOUNDS xy xz yz pp pp pp
0.0 5.4929849247898446 1.3732462311974609
0.0 3.1713763249819729 1.3732462311974609
0.0 2.2425017050892251 0.7928440812454932
ITEM: ATOMS id type x y z fx fy fz
1 2 0.0 0.0 0.0 0.0 0.0 0.0
ITEM: TIMESTEP energy, energy_weight, force_weight, nsims
24 -68.501505285987264 1 1 594
ITEM: NUMBER OF ATOMS
1
ITEM: BOX BOUNDS xy xz yz pp pp pp
0.0 5.5038617384527804 1.3759654346131951
0.0 3.1776560562781939 1.3759654346131951
0.0 2.2469421456728127 0.7944140140695484
ITEM: ATOMS id type x y z fx fy fz
1 2 0.0 0.0 0.0 0.0 0.0 0.0
ITEM: TIMESTEP energy, energy_weight, force_weight, nsims
25 -68.507373520802176 1 1 594
ITEM: NUMBER OF ATOMS
1
ITEM: BOX BOUNDS xy xz yz pp pp pp
0.0 5.5147271388799712 1.3786817847199928
0.0 3.1839291981396865 1.3786817847199928
0.0 2.251377926822419 0.7959822995349218
ITEM: ATOMS id type x y z fx fy fz
1 2 0.0 0.0 0.0 0.0 0.0 0.0
ITEM: TIMESTEP energy, energy_weight, force_weight, nsims
26 -68.5128597101425926 1 1 594
ITEM: NUMBER OF ATOMS
1
ITEM: BOX BOUNDS xy xz yz pp pp pp
0.0 5.5255582995999362 1.3813895748999838
0.0 3.1901825716969943 1.3813895748999838
0.0 2.255799729670084 0.7975456429242488
ITEM: ATOMS id type x y z fx fy fz
1 2 0.0 0.0 0.0 0.0 0.0 0.0
ITEM: TIMESTEP energy, energy_weight, force_weight, nsims
27 -68.517972969765907 1 1 594
ITEM: NUMBER OF ATOMS
1
ITEM: BOX BOUNDS xy xz yz pp pp pp
0.0 5.5363780470841562 1.3840945117710391
0.0 3.1964293558195722 1.3840945117710391
0.0 2.2602168730837673 0.7991073389548934
ITEM: ATOMS id type x y z fx fy fz
1 2 0.0 0.0 0.0 0.0 0.0 0.0
ITEM: TIMESTEP energy, energy_weight, force_weight, nsims
28 -68.5227224154295556 1 1 594
ITEM: NUMBER OF ATOMS
1
ITEM: BOX BOUNDS xy xz yz pp pp pp
0.0 5.5471635548611484 1.3867908887152871
0.0 3.2026563716379655 1.3867908887152871
0.0 2.2646200381955093 0.8006640929094914
ITEM: ATOMS id type x y z fx fy fz
1 2 0.0 0.0 0.0 0.0 0.0 0.0
ITEM: TIMESTEP energy, energy_weight, force_weight, nsims
29 -68.5271166186666108 1 1 594
ITEM: NUMBER OF ATOMS
1
ITEM: BOX BOUNDS xy xz yz pp pp pp
0.0 5.5579376494023976 1.3894844123505996
0.0 3.2088767980216297 1.3894844123505996
0.0 2.26901854387327 0.8022191995054074
ITEM: ATOMS id type x y z fx fy fz
1 2 0.0 0.0 0.0 0.0 0.0 0.0
ITEM: TIMESTEP energy, energy_weight, force_weight, nsims
30 -68.5311644231222914 1 1 594
ITEM: NUMBER OF ATOMS
1
ITEM: BOX BOUNDS xy xz yz pp pp pp
0.0 5.5686889174721622 1.3921722293680406
0.0 3.2150840455358378 1.3921722293680406
0.0 2.2734077306830698 0.8037710113839596
ITEM: ATOMS id type x y z fx fy fz
1 2 0.0 0.0 0.0 0.0 0.0 0.0
ITEM: TIMESTEP energy, energy_weight, force_weight, nsims
31 -68.5348741282175382 1 1 594
ITEM: NUMBER OF ATOMS
1
ITEM: BOX BOUNDS xy xz yz pp pp pp
0.0 5.5794173590704396 1.3948543397676099
0.0 3.2212781141805893 1.3948543397676099
0.0 2.2777875986249083 0.8053195285451474
ITEM: ATOMS id type x y z fx fy fz
1 2 0.0 0.0 0.0 0.0 0.0 0.0
ITEM: TIMESTEP energy, energy_weight, force_weight, nsims
32 -68.5382537612611032 1 1 594
ITEM: NUMBER OF ATOMS
1
ITEM: BOX BOUNDS xy xz yz pp pp pp
0.0 5.5901343874329754 1.3975335968582439
0.0 3.2274655933906118 1.3975335968582439
0.0 2.282162807132766 0.8068663983476528
ITEM: ATOMS id type x y z fx fy fz
1 2 0.0 0.0 0.0 0.0 0.0 0.0
ITEM: TIMESTEP energy, energy_weight, force_weight, nsims
33 -68.158538383207997 1 1 594
ITEM: NUMBER OF ATOMS
1
ITEM: BOX BOUNDS xy xz yz pp pp pp
0.0 5.2021756780620523 1.3005439195155131
0.0 3.0034775281008499 1.3005439195155131
0.0 2.1237793272615204 0.7508693820252126
ITEM: ATOMS id type x y z fx fy fz
1 2 0.0 0.0 0.0 0.0 0.0 0.0
ITEM: TIMESTEP energy, energy_weight, force_weight, nsims
34 -68.5413116216739128 1 1 594
ITEM: NUMBER OF ATOMS
1
ITEM: BOX BOUNDS xy xz yz pp pp pp
0.0 5.600817176088282 1.4002042940220705
0.0 3.2336333042964487 1.4002042940220705
0.0 2.286524037338682 0.8084083260741124
ITEM: ATOMS id type x y z fx fy fz
1 2 0.0 0.0 0.0 0.0 0.0 0.0
ITEM: TIMESTEP energy, energy_weight, force_weight, nsims
35 -68.5440553285964854 1 1 594
ITEM: NUMBER OF ATOMS
1
ITEM: BOX BOUNDS xy xz yz pp pp pp
0.0 5.6114885515078462 1.4028721378769615
0.0 3.239794425767558 1.4028721378769615
0.0 2.290880608110617 0.8099486064418896
ITEM: ATOMS id type x y z fx fy fz
1 2 0.0 0.0 0.0 0.0 0.0 0.0
ITEM: TIMESTEP energy, energy_weight, force_weight, nsims
36 -68.5464926372254126 1 1 594
ITEM: NUMBER OF ATOMS
1
ITEM: BOX BOUNDS xy xz yz pp pp pp
0.0 5.6221371004559232 1.4055342751139808
0.0 3.2459423683692097 1.4055342751139808
0.0 2.2952278600145904 0.8114855920923024
ITEM: ATOMS id type x y z fx fy fz
1 2 0.0 0.0 0.0 0.0 0.0 0.0
ITEM: TIMESTEP energy, energy_weight, force_weight, nsims
37 -68.548631030645126 1 1 594
ITEM: NUMBER OF ATOMS
1
ITEM: BOX BOUNDS xy xz yz pp pp pp
0.0 5.6327742361682596 1.4081935590420649
0.0 3.2520837215361329 1.4081935590420649
0.0 2.2995704524845833 0.8130209303840332
ITEM: ATOMS id type x y z fx fy fz
1 2 0.0 0.0 0.0 0.0 0.0 0.0
ITEM: TIMESTEP energy, energy_weight, force_weight, nsims
38 -68.5504778558839974 1 1 594
ITEM: NUMBER OF ATOMS
1
ITEM: BOX BOUNDS xy xz yz pp pp pp
0.0 5.6433771321733658 1.4108442830433414
0.0 3.258205306398871 1.4108442830433414
0.0 2.3038990666526345 0.814551326599718
ITEM: ATOMS id type x y z fx fy fz
1 2 0.0 0.0 0.0 0.0 0.0 0.0
ITEM: TIMESTEP energy, energy_weight, force_weight, nsims
39 -68.5520401878582106 1 1 594
ITEM: NUMBER OF ATOMS
1
ITEM: BOX BOUNDS xy xz yz pp pp pp
0.0 5.6539686149427304 1.4134921537356826
0.0 3.2643203018268805 1.4134921537356826
0.0 2.3082230213867048 0.8160800754567202
ITEM: ATOMS id type x y z fx fy fz
1 2 0.0 0.0 0.0 0.0 0.0 0.0
ITEM: TIMESTEP energy, energy_weight, force_weight, nsims
40 -68.5533253735961098 1 1 594
ITEM: NUMBER OF ATOMS
1
ITEM: BOX BOUNDS xy xz yz pp pp pp
0.0 5.664537271240608 1.416134317810152
0.0 3.270422118385433 1.416134317810152
0.0 2.3125376572528134 0.817605529596358
ITEM: ATOMS id type x y z fx fy fz
1 2 0.0 0.0 0.0 0.0 0.0 0.0
ITEM: TIMESTEP energy, energy_weight, force_weight, nsims
41 -68.5543399437895858 1 1 594
ITEM: NUMBER OF ATOMS
1
ITEM: BOX BOUNDS xy xz yz pp pp pp
0.0 5.6750831010669992 1.4187707752667498
0.0 3.2765107560745284 1.4187707752667498
0.0 2.3168429742509607 0.8191276890186322
ITEM: ATOMS id type x y z fx fy fz
1 2 0.0 0.0 0.0 0.0 0.0 0.0
ITEM: TIMESTEP energy, energy_weight, force_weight, nsims
42 -68.5550908372987352 1 1 594
ITEM: NUMBER OF ATOMS
1
ITEM: BOX BOUNDS xy xz yz pp pp pp
0.0 5.6856175176576498 1.4214043794144125
0.0 3.2825928043288961 1.4214043794144125
0.0 2.321143631815128 0.820648201082224
ITEM: ATOMS id type x y z fx fy fz
1 2 0.0 0.0 0.0 0.0 0.0 0.0
ITEM: TIMESTEP energy, energy_weight, force_weight, nsims
43 -68.5555844487593618 1 1 594
ITEM: NUMBER OF ATOMS
1
ITEM: BOX BOUNDS xy xz yz pp pp pp
0.0 5.6961291077768124 1.4240322769442031
0.0 3.2886616737138059 1.4240322769442031
0.0 2.3254349705113331 0.8221654184284516
ITEM: ATOMS id type x y z fx fy fz
1 2 0.0 0.0 0.0 0.0 0.0 0.0
ITEM: TIMESTEP energy, energy_weight, force_weight, nsims
44 -68.1790929195374673 1 1 594
ITEM: NUMBER OF ATOMS
1
ITEM: BOX BOUNDS xy xz yz pp pp pp
0.0 5.2136573932193589 1.3034143483048397
0.0 3.0101064994376796 1.3034143483048397
0.0 2.1284667178460839 0.7525266248594198
ITEM: ATOMS id type x y z fx fy fz
1 2 0.0 0.0 0.0 0.0 0.0 0.0
ITEM: TIMESTEP energy, energy_weight, force_weight, nsims
45 -68.55582744491943 1 1 594
ITEM: NUMBER OF ATOMS
1
ITEM: BOX BOUNDS xy xz yz pp pp pp
0.0 5.7066178714244914 1.4266544678561231
0.0 3.2947173642292591 1.4266544678561231
0.0 2.3297169903395774 0.8236793410573148
ITEM: ATOMS id type x y z fx fy fz
1 2 0.0 0.0 0.0 0.0 0.0 0.0
ITEM: TIMESTEP energy, energy_weight, force_weight, nsims
46 -68.5558259483025268 1 1 594
ITEM: NUMBER OF ATOMS
1
ITEM: BOX BOUNDS xy xz yz pp pp pp
0.0 5.717095221836427 1.429273805459107
0.0 3.3007664653099842 1.429273805459107
0.0 2.3339943507338412 0.825191616327496
ITEM: ATOMS id type x y z fx fy fz
1 2 0.0 0.0 0.0 0.0 0.0 0.0
ITEM: TIMESTEP energy, energy_weight, force_weight, nsims
47 -68.5555862174884254 1 1 594
ITEM: NUMBER OF ATOMS
1
ITEM: BOX BOUNDS xy xz yz pp pp pp
0.0 5.7275383325411342 1.4318845831352836
0.0 3.3067957980865242 1.4318845831352836
0.0 2.3382577328261625 0.826698949521631
ITEM: ATOMS id type x y z fx fy fz
1 2 0.0 0.0 0.0 0.0 0.0 0.0
ITEM: TIMESTEP energy, energy_weight, force_weight, nsims
48 -68.5551143750006986 1 1 594
ITEM: NUMBER OF ATOMS
1
ITEM: BOX BOUNDS xy xz yz pp pp pp
0.0 5.7379814432458414 1.4344953608114604
0.0 3.3128251308630632 1.4344953608114604
0.0 2.3425211149184837 0.8282062827157658
ITEM: ATOMS id type x y z fx fy fz
1 2 0.0 0.0 0.0 0.0 0.0 0.0
ITEM: TIMESTEP energy, energy_weight, force_weight, nsims
49 -68.5544159991386692 1 1 594
ITEM: NUMBER OF ATOMS
1
ITEM: BOX BOUNDS xy xz yz pp pp pp
0.0 5.748390314243319 1.4370975785608298
0.0 3.3188346953354176 1.4370975785608298
0.0 2.3467705187088632 0.8297086738338544
ITEM: ATOMS id type x y z fx fy fz
1 2 0.0 0.0 0.0 0.0 0.0 0.0
ITEM: TIMESTEP energy, energy_weight, force_weight, nsims
50 -68.553497348482054 1 1 594
ITEM: NUMBER OF ATOMS
1
ITEM: BOX BOUNDS xy xz yz pp pp pp
0.0 5.7587877720050554 1.4396969430012639
0.0 3.3248376703730434 1.4396969430012639
0.0 2.3510152630652619 0.8312094175932608
ITEM: ATOMS id type x y z fx fy fz
1 2 0.0 0.0 0.0 0.0 0.0 0.0
ITEM: TIMESTEP energy, energy_weight, force_weight, nsims
51 -68.5523635931619282 1 1 594
ITEM: NUMBER OF ATOMS
1
ITEM: BOX BOUNDS xy xz yz pp pp pp
0.0 5.7691624032953054 1.4422906008238263
0.0 3.330827466541213 1.4422906008238263
0.0 2.3552506885536997 0.8327068666353032
ITEM: ATOMS id type x y z fx fy fz
1 2 0.0 0.0 0.0 0.0 0.0 0.0
ITEM: TIMESTEP energy, energy_weight, force_weight, nsims
52 -68.5510207196458198 1 1 594
ITEM: NUMBER OF ATOMS
1
ITEM: BOX BOUNDS xy xz yz pp pp pp
0.0 5.7795256213498104 1.4448814053374528
0.0 3.3368106732746523 1.4448814053374528
0.0 2.3594814546081558 0.834202668318663
ITEM: ATOMS id type x y z fx fy fz
1 2 0.0 0.0 0.0 0.0 0.0 0.0
ITEM: TIMESTEP energy, energy_weight, force_weight, nsims
53 -68.549473898064818 1 1 594
ITEM: NUMBER OF ATOMS
1
ITEM: BOX BOUNDS xy xz yz pp pp pp
0.0 5.7898660129328326 1.4474665032332082
0.0 3.3427807011386359 1.4474665032332082
0.0 2.3637029017946514 0.8356951752846592
ITEM: ATOMS id type x y z fx fy fz
1 2 0.0 0.0 0.0 0.0 0.0 0.0
ITEM: TIMESTEP energy, energy_weight, force_weight, nsims
54 -68.547728434606043 1 1 594
ITEM: NUMBER OF ATOMS
1
ITEM: BOX BOUNDS xy xz yz pp pp pp
0.0 5.8001835780443676 1.4500458945110919
0.0 3.3487375501331625 1.4500458945110919
0.0 2.3679150301131853 0.8371843875332906
ITEM: ATOMS id type x y z fx fy fz
1 2 0.0 0.0 0.0 0.0 0.0 0.0
ITEM: TIMESTEP energy, energy_weight, force_weight, nsims
55 -68.1989198279475915 1 1 594
ITEM: NUMBER OF ATOMS
1
ITEM: BOX BOUNDS xy xz yz pp pp pp
0.0 5.2251162819051782 1.3062790704762948
0.0 3.0167222919050509 1.3062790704762948
0.0 2.1331447895626852 0.7541805729762628
ITEM: ATOMS id type x y z fx fy fz
1 2 0.0 0.0 0.0 0.0 0.0 0.0
ITEM: TIMESTEP energy, energy_weight, force_weight, nsims
56 -68.545789635456643 1 1 594
ITEM: NUMBER OF ATOMS
1
ITEM: BOX BOUNDS xy xz yz pp pp pp
0.0 5.8104897299201604 1.4526224324800404
0.0 3.3546878096929609 1.4526224324800404
0.0 2.3721224989977388 0.8386719524232402
ITEM: ATOMS id type x y z fx fy fz
1 2 0.0 0.0 0.0 0.0 0.0 0.0
ITEM: TIMESTEP energy, energy_weight, force_weight, nsims
57 -68.5436625346916202 1 1 594
ITEM: NUMBER OF ATOMS
1
ITEM: BOX BOUNDS xy xz yz pp pp pp
0.0 5.8207730553244668 1.4551932638311168
0.0 3.3606248903833018 1.4551932638311168
0.0 2.3763206490143305 0.8401562225958256
ITEM: ATOMS id type x y z fx fy fz
1 2 0.0 0.0 0.0 0.0 0.0 0.0
ITEM: TIMESTEP energy, energy_weight, force_weight, nsims
58 -68.5413520303298754 1 1 594
ITEM: NUMBER OF ATOMS
1
ITEM: BOX BOUNDS xy xz yz pp pp pp
0.0 5.831044967493031 1.4577612418732578
0.0 3.3665553816389142 1.4577612418732578
0.0 2.3805141395969418 0.8416388454097284
ITEM: ATOMS id type x y z fx fy fz
1 2 0.0 0.0 0.0 0.0 0.0 0.0
ITEM: TIMESTEP energy, energy_weight, force_weight, nsims
59 -68.538863156446368 1 1 594
ITEM: NUMBER OF ATOMS
1
ITEM: BOX BOUNDS xy xz yz pp pp pp
0.0 5.8412940531901096 1.4603235132975276
0.0 3.3724726940250696 1.4603235132975276
0.0 2.3846983113115918 0.8431181735062674
ITEM: ATOMS id type x y z fx fy fz
1 2 0.0 0.0 0.0 0.0 0.0 0.0
ITEM: TIMESTEP energy, energy_weight, force_weight, nsims
60 -68.536200538947881 1 1 594
ITEM: NUMBER OF ATOMS
1
ITEM: BOX BOUNDS xy xz yz pp pp pp
0.0 5.8515203124157038 1.462880078103926
0.0 3.3783768275417696 1.462880078103926
0.0 2.3888731641582806 0.8445942068854424
ITEM: ATOMS id type x y z fx fy fz
1 2 0.0 0.0 0.0 0.0 0.0 0.0
ITEM: TIMESTEP energy, energy_weight, force_weight, nsims
61 -68.5333689397971996 1 1 594
ITEM: NUMBER OF ATOMS
1
ITEM: BOX BOUNDS xy xz yz pp pp pp
0.0 5.861735158405553 1.465433789601388
0.0 3.3842743716237398 1.465433789601388
0.0 2.393043357570988 0.8460685929059352
ITEM: ATOMS id type x y z fx fy fz
1 2 0.0 0.0 0.0 0.0 0.0 0.0
ITEM: TIMESTEP energy, energy_weight, force_weight, nsims
62 -68.5303727127889318 1 1 594
ITEM: NUMBER OF ATOMS
1
ITEM: BOX BOUNDS xy xz yz pp pp pp
0.0 5.8719271779239168 1.4679817944809792
0.0 3.3901587368362529 1.4679817944809792
0.0 2.3972042321157345 0.8475396842090632
ITEM: ATOMS id type x y z fx fy fz
1 2 0.0 0.0 0.0 0.0 0.0 0.0
ITEM: TIMESTEP energy, energy_weight, force_weight, nsims
63 -68.5272166198858912 1 1 594
ITEM: NUMBER OF ATOMS
1
ITEM: BOX BOUNDS xy xz yz pp pp pp
0.0 5.8821077842065376 1.4705269460516344
0.0 3.3960365126140375 1.4705269460516344
0.0 2.4013604472265002 0.8490091281535094
ITEM: ATOMS id type x y z fx fy fz
1 2 0.0 0.0 0.0 0.0 0.0 0.0
ITEM: TIMESTEP energy, energy_weight, force_weight, nsims
64 -68.5239048788265706 1 1 594
ITEM: NUMBER OF ATOMS
1
ITEM: BOX BOUNDS xy xz yz pp pp pp
0.0 5.8922655640176736 1.4730663910044182
0.0 3.4019011095223659 1.4730663910044182
0.0 2.4055073434693046 0.8504752773805916
ITEM: ATOMS id type x y z fx fy fz
1 2 0.0 0.0 0.0 0.0 0.0 0.0
ITEM: TIMESTEP energy, energy_weight, force_weight, nsims
65 -68.5204417073494768 1 1 594
ITEM: NUMBER OF ATOMS
1
ITEM: BOX BOUNDS xy xz yz pp pp pp
0.0 5.9024119305930674 1.4756029826482668
0.0 3.4077591169959663 1.4756029826482668
0.0 2.4096495802781291 0.8519397792489916
ITEM: ATOMS id type x y z fx fy fz
1 2 0.0 0.0 0.0 0.0 0.0 0.0
ITEM: TIMESTEP energy, energy_weight, force_weight, nsims
66 -68.2180359793923401 1 1 594
ITEM: NUMBER OF ATOMS
1
ITEM: BOX BOUNDS xy xz yz pp pp pp
0.0 5.236552344119513 1.3091380860298783
0.0 3.0233249055029674 1.3091380860298783
0.0 2.1378135424113261 0.7558312263757418
ITEM: ATOMS id type x y z fx fy fz
1 2 0.0 0.0 0.0 0.0 0.0 0.0
ITEM: TIMESTEP energy, energy_weight, force_weight, nsims
67 -68.5168313231931024 1 1 594
ITEM: NUMBER OF ATOMS
1
ITEM: BOX BOUNDS xy xz yz pp pp pp
0.0 5.912535470696973 1.4781338676742436
0.0 3.4136039456001082 1.4781338676742436
0.0 2.4137824982189908 0.853400986400027
ITEM: ATOMS id type x y z fx fy fz
1 2 0.0 0.0 0.0 0.0 0.0 0.0
ITEM: TIMESTEP energy, energy_weight, force_weight, nsims
68 -68.5130778080398812 1 1 594
ITEM: NUMBER OF ATOMS
1
ITEM: BOX BOUNDS xy xz yz pp pp pp
0.0 5.922636184329395 1.4806590460823486
0.0 3.4194355953347944 1.4806590460823486
0.0 2.4179060972918918 0.8548588988336988
ITEM: ATOMS id type x y z fx fy fz
1 2 0.0 0.0 0.0 0.0 0.0 0.0
ITEM: TIMESTEP energy, energy_weight, force_weight, nsims
69 -68.509185243572233 1 1 594
ITEM: NUMBER OF ATOMS
1
ITEM: BOX BOUNDS xy xz yz pp pp pp
0.0 5.9327368979618172 1.4831842244904544
0.0 3.4252672450694801 1.4831842244904544
0.0 2.4220296963647936 0.85631681126737
ITEM: ATOMS id type x y z fx fy fz
1 2 0.0 0.0 0.0 0.0 0.0 0.0
ITEM: TIMESTEP energy, energy_weight, force_weight, nsims
70 -68.505157575416476 1 1 594
ITEM: NUMBER OF ATOMS
1
ITEM: BOX BOUNDS xy xz yz pp pp pp
0.0 5.9428033718870088 1.4857008429717522
0.0 3.4310791264999803 1.4857008429717522
0.0 2.426139317135752 0.8577697816249952
ITEM: ATOMS id type x y z fx fy fz
1 2 0.0 0.0 0.0 0.0 0.0 0.0
ITEM: TIMESTEP energy, energy_weight, force_weight, nsims
71 -68.5009984770868102 1 1 594
ITEM: NUMBER OF ATOMS
1
ITEM: BOX BOUNDS xy xz yz pp pp pp
0.0 5.9528584325764582 1.4882146081441146
0.0 3.4368844184957519 1.4882146081441146
0.0 2.4302442784727303 0.859221104623938
ITEM: ATOMS id type x y z fx fy fz
1 2 0.0 0.0 0.0 0.0 0.0 0.0
ITEM: TIMESTEP energy, energy_weight, force_weight, nsims
72 -68.496711758153495 1 1 594
ITEM: NUMBER OF ATOMS
1
ITEM: BOX BOUNDS xy xz yz pp pp pp
0.0 5.9629020800301654 1.4907255200075414
0.0 3.4426831210567959 1.4907255200075414
0.0 2.4343445803757282 0.860670780264199
ITEM: ATOMS id type x y z fx fy fz
1 2 0.0 0.0 0.0 0.0 0.0 0.0
ITEM: TIMESTEP energy, energy_weight, force_weight, nsims
73 -68.4923010921306884 1 1 594
ITEM: NUMBER OF ATOMS
1
ITEM: BOX BOUNDS xy xz yz pp pp pp
0.0 5.9729229010123878 1.493230725253097
0.0 3.4484686447483828 1.493230725253097
0.0 2.4384355634107649 0.8621171611870956
ITEM: ATOMS id type x y z fx fy fz
1 2 0.0 0.0 0.0 0.0 0.0 0.0
ITEM: TIMESTEP energy, energy_weight, force_weight, nsims
74 -68.4877700164765032 1 1 594
ITEM: NUMBER OF ATOMS
1
ITEM: BOX BOUNDS xy xz yz pp pp pp
0.0 5.9829323087588656 1.4957330771897166
0.0 3.4542475790052398 1.4957330771897166
0.0 2.4425218870118202 0.86356189475131
ITEM: ATOMS id type x y z fx fy fz
1 2 0.0 0.0 0.0 0.0 0.0 0.0
ITEM: TIMESTEP energy, energy_weight, force_weight, nsims
75 -68.4831220686490384 1 1 594
ITEM: NUMBER OF ATOMS
1
ITEM: BOX BOUNDS xy xz yz pp pp pp
0.0 5.9929188900338594 1.4982297225084652
0.0 3.4600133343926416 1.4982297225084652
0.0 2.4465988917449142 0.8650033335981604
ITEM: ATOMS id type x y z fx fy fz
1 2 0.0 0.0 0.0 0.0 0.0 0.0
ITEM: TIMESTEP energy, energy_weight, force_weight, nsims
76 -68.4783607861063644 1 1 594
ITEM: NUMBER OF ATOMS
1
ITEM: BOX BOUNDS xy xz yz pp pp pp
0.0 6.0028940580731085 1.5007235145182772
0.0 3.4657725003453144 1.5007235145182772
0.0 2.4506712370440278 0.8664431250863286
ITEM: ATOMS id type x y z fx fy fz
1 2 0.0 0.0 0.0 0.0 0.0 0.0
ITEM: TIMESTEP energy, energy_weight, force_weight, nsims
77 -68.2364579727135805 1 1 594
ITEM: NUMBER OF ATOMS
1
ITEM: BOX BOUNDS xy xz yz pp pp pp
0.0 5.2479655798623633 1.3119913949655908
0.0 3.0299143402314255 1.3119913949655908
0.0 2.1424729763920052 0.7574785850578564
ITEM: ATOMS id type x y z fx fy fz
1 2 0.0 0.0 0.0 0.0 0.0 0.0
ITEM: TIMESTEP energy, energy_weight, force_weight, nsims
78 -68.4734894341944482 1 1 594
ITEM: NUMBER OF ATOMS
1
ITEM: BOX BOUNDS xy xz yz pp pp pp
0.0 6.012846399640873 1.5032115999102182
0.0 3.4715184874285306 1.5032115999102182
0.0 2.4547342634751802 0.8678796218571326
ITEM: ATOMS id type x y z fx fy fz
1 2 0.0 0.0 0.0 0.0 0.0 0.0
ITEM: TIMESTEP energy, energy_weight, force_weight, nsims
79 -68.4685112782592284 1 1 594
ITEM: NUMBER OF ATOMS
1
ITEM: BOX BOUNDS xy xz yz pp pp pp
0.0 6.0227873279728943 1.5056968319932236
0.0 3.4772578850770174 1.5056968319932236
0.0 2.4587926304723516 0.8693144712692544
ITEM: ATOMS id type x y z fx fy fz
1 2 0.0 0.0 0.0 0.0 0.0 0.0
ITEM: TIMESTEP energy, energy_weight, force_weight, nsims
80 -68.4634295836466152 1 1 594
ITEM: NUMBER OF ATOMS
1
ITEM: BOX BOUNDS xy xz yz pp pp pp
0.0 6.0327054298334311 1.5081763574583578
0.0 3.4829841038560478 1.5081763574583578
0.0 2.4628416786015618 0.8707460259640118
ITEM: ATOMS id type x y z fx fy fz
1 2 0.0 0.0 0.0 0.0 0.0 0.0
ITEM: TIMESTEP energy, energy_weight, force_weight, nsims
81 -68.4582474796464738 1 1 594
ITEM: NUMBER OF ATOMS
1
ITEM: BOX BOUNDS xy xz yz pp pp pp
0.0 6.0426121184582229 1.5106530296145558
0.0 3.48870373320035 1.5106530296145558
0.0 2.4668860672967914 0.8721759333000874
ITEM: ATOMS id type x y z fx fy fz
1 2 0.0 0.0 0.0 0.0 0.0 0.0
ITEM: TIMESTEP energy, energy_weight, force_weight, nsims
82 -68.4529680955486698 1 1 594
ITEM: NUMBER OF ATOMS
1
ITEM: BOX BOUNDS xy xz yz pp pp pp
0.0 6.0525073938472733 1.5131268484618186
0.0 3.4944167731099238 1.5131268484618186
0.0 2.4709257965580402 0.8736041932774808
ITEM: ATOMS id type x y z fx fy fz
1 2 0.0 0.0 0.0 0.0 0.0 0.0
ITEM: TIMESTEP energy, energy_weight, force_weight, nsims
83 -68.4475944245869528 1 1 594
ITEM: NUMBER OF ATOMS
1
ITEM: BOX BOUNDS xy xz yz pp pp pp
0.0 6.0623798427648366 1.5155949606912092
0.0 3.5001166341500394 1.5155949606912092
0.0 2.4749562069513274 0.8750291585375098
ITEM: ATOMS id type x y z fx fy fz
1 2 0.0 0.0 0.0 0.0 0.0 0.0
ITEM: TIMESTEP energy, energy_weight, force_weight, nsims
84 -68.4421293239390281 1 1 594
ITEM: NUMBER OF ATOMS
1
ITEM: BOX BOUNDS xy xz yz pp pp pp
0.0 6.0722408784466593 1.5180602196116648
0.0 3.5058099057554282 1.5180602196116648
0.0 2.4789819579106346 0.876452476438857
ITEM: ATOMS id type x y z fx fy fz
1 2 0.0 0.0 0.0 0.0 0.0 0.0
ITEM: TIMESTEP energy, energy_weight, force_weight, nsims
85 -68.4365757868387022 1 1 594
ITEM: NUMBER OF ATOMS
1
ITEM: BOX BOUNDS xy xz yz pp pp pp
0.0 6.0820790876569948 1.5205197719142488
0.0 3.5114899984913596 1.5205197719142488
0.0 2.48299839000198 0.87787249962284
ITEM: ATOMS id type x y z fx fy fz
1 2 0.0 0.0 0.0 0.0 0.0 0.0
ITEM: TIMESTEP energy, energy_weight, force_weight, nsims
86 -68.4309366704636233 1 1 594
ITEM: NUMBER OF ATOMS
1
ITEM: BOX BOUNDS xy xz yz pp pp pp
0.0 6.0919058836315863 1.5229764709078966
0.0 3.5171635017925622 1.5229764709078966
0.0 2.487010162659344 0.8792908754481406
ITEM: ATOMS id type x y z fx fy fz
1 2 0.0 0.0 0.0 0.0 0.0 0.0
ITEM: TIMESTEP energy, energy_weight, force_weight, nsims
87 -68.4252146959354377 1 1 594
ITEM: NUMBER OF ATOMS
1
ITEM: BOX BOUNDS xy xz yz pp pp pp
0.0 6.1017212663704381 1.5254303165926094
0.0 3.522830415659037 1.5254303165926094
0.0 2.4910172758827286 0.8807076039147592
ITEM: ATOMS id type x y z fx fy fz
1 2 0.0 0.0 0.0 0.0 0.0 0.0
ITEM: TIMESTEP energy, energy_weight, force_weight, nsims
88 -68.2542015904166419 1 1 594
ITEM: NUMBER OF ATOMS
1
ITEM: BOX BOUNDS xy xz yz pp pp pp
0.0 5.2593445758979831 1.3148361439744958
0.0 3.0364840066556988 1.3148361439744958
0.0 2.1471184320707422 0.7591210016639248
ITEM: ATOMS id type x y z fx fy fz
1 2 0.0 0.0 0.0 0.0 0.0 0.0