ITEM: TIMESTEP energy, energy_weight, force_weight, nsims
0 -136.5133018800173944 1 1 410
ITEM: NUMBER OF ATOMS
2
ITEM: BOX BOUNDS xy xz yz pp pp pp
-1.3225903338925356 2.6451806677850712 -1.3225903338925356
0.0 2.2907935118442189 0.0
0.0 4.319562499819579 0.0
ITEM: ATOMS id type x y z fx fy fz
1 2 -2.6451806679122992e-06 1.5271987289541618 1.0798906249548947 0.0 0.0 0.0
2 2 1.3225943016635373 0.763597073683569 3.2396718748646842 0.0 0.0 0.0
ITEM: TIMESTEP energy, energy_weight, force_weight, nsims
1 -136.5708865277076712 1 1 410
ITEM: NUMBER OF ATOMS
2
ITEM: BOX BOUNDS xy xz yz pp pp pp
-1.3279613488763707 2.6559226977527414 -1.3279613488763707
0.0 2.300097946723279 0.0
0.0 4.3371045827460719 0.0
ITEM: ATOMS id type x y z fx fy fz
1 2 -2.6559226978386526e-06 1.5334016979461152 1.084276145686518 0.0 0.0 0.0
2 2 1.3279653327604173 0.7666985488751108 3.252828437059554 0.0 0.0 0.0
ITEM: TIMESTEP energy, energy_weight, force_weight, nsims
2 -136.6243109886196408 1 1 410
ITEM: NUMBER OF ATOMS
2
ITEM: BOX BOUNDS xy xz yz pp pp pp
-1.3333123972617529 2.6666247945235058 -1.3333123972617529
0.0 2.3093653007766406 0.0
0.0 4.3545782087635834 0.0
ITEM: ATOMS id type x y z fx fy fz
1 2 -2.666624794545887e-06 1.5395799463381616 1.0886445521908958 0.0 0.0 0.0
2 2 1.3333163971989448 0.7697876638037802 3.2659336565726869 0.0 0.0 0.0
ITEM: TIMESTEP energy, energy_weight, force_weight, nsims
3 -136.6737533601628912 1 1 410
ITEM: NUMBER OF ATOMS
2
ITEM: BOX BOUNDS xy xz yz pp pp pp
-1.3386406266774747 2.6772812533549494 -1.3386406266774747
0.0 2.3185927216330966 0.0
0.0 4.3719833778721134 0.0
ITEM: ATOMS id type x y z fx fy fz
1 2 -2.6772812533864322e-06 1.5457315725456936 1.0929958444680283 0.0 0.0 0.0
2 2 1.3386446425993548 0.772863467680125 3.2789875334040852 0.0 0.0 0.0
ITEM: TIMESTEP energy, energy_weight, force_weight, nsims
4 -136.7193850729990174 1 1 410
ITEM: NUMBER OF ATOMS
2
ITEM: BOX BOUNDS xy xz yz pp pp pp
-1.3439488894947434 2.6878977789894868 -1.3439488894947434
0.0 2.3277859140350619 0.0
0.0 4.3893172377004541 0.0
ITEM: ATOMS id type x y z fx fy fz
1 2 -2.6878977790606364e-06 1.551860379737927 1.0973293094251135 0.0 0.0 0.0
2 2 1.3439529213414121 0.7759278620830494 3.2919879282753408 0.0 0.0 0.0
ITEM: TIMESTEP energy, energy_weight, force_weight, nsims
5 -136.7613704828735024 1 1 410
ITEM: NUMBER OF ATOMS
2
ITEM: BOX BOUNDS xy xz yz pp pp pp
-1.3492343333423516 2.6984686666847032 -1.3492343333423516
0.0 2.3369420256113287 0.0
0.0 4.4065826406198134 0.0
ITEM: ATOMS id type x y z fx fy fz
1 2 -2.6984686668153724e-06 1.5579644663302532 1.1016456601549534 0.0 0.0 0.0
2 2 1.3492383810453517 0.778979896223101 3.3049369804648605 0.0 0.0 0.0
ITEM: TIMESTEP energy, energy_weight, force_weight, nsims
6 -136.799867550895982 1 1 410
ITEM: NUMBER OF ATOMS
2
ITEM: BOX BOUNDS xy xz yz pp pp pp
-1.3544998105915072 2.7090024735542216 -1.3544998105915072
0.0 2.3460639087331052 0.0
0.0 4.4237824390013989 0.0
ITEM: ATOMS id type x y z fx fy fz
1 2 -1.7582101695730842e-06 1.5640457339072816 1.1059456097503495 0.0 0.0 0.0
2 2 1.3545057756755472 0.7820205208897322 3.3178368292510494 0.0 0.0 0.0
ITEM: TIMESTEP energy, energy_weight, force_weight, nsims
7 -136.8350279795963332 1 1 410
ITEM: NUMBER OF ATOMS
2
ITEM: BOX BOUNDS xy xz yz pp pp pp
-1.3597453212422095 2.7194934948556266 -1.3597453212422095
0.0 2.3551515634003906 0.0
0.0 4.4409137804740038 0.0
ITEM: ATOMS id type x y z fx fy fz
1 2 -1.7687011907312424e-06 1.5701041824690116 1.1102284451185007 0.0 0.0 0.0
2 2 1.3597513020627816 0.7850497360829426 3.3306853353555028 0.0 0.0 0.0
ITEM: TIMESTEP energy, energy_weight, force_weight, nsims
8 -136.8669976210931054 1 1 410
ITEM: NUMBER OF ATOMS
2
ITEM: BOX BOUNDS xy xz yz pp pp pp
-1.364970865294459 2.7299445829601258 -1.364970865294459
0.0 2.3642021372419779 0.0
0.0 4.457979517408834 0.0
ITEM: ATOMS id type x y z fx fy fz
1 2 -1.7791522788813986e-06 1.5761379104308354 1.1144948793522085 0.0 0.0 0.0
2 2 1.3649768617916631 0.7880665910132802 3.343484638056625 0.0 0.0 0.0
ITEM: TIMESTEP energy, energy_weight, force_weight, nsims
9 -136.8959163410371788 1 1 410
ITEM: NUMBER OF ATOMS
2
ITEM: BOX BOUNDS xy xz yz pp pp pp
-1.3701764427482557 2.740355737867719 -1.3701764427482557
0.0 2.3732184826290746 0.0
0.0 4.474982502177098 0.0
ITEM: ATOMS id type x y z fx fy fz
1 2 -1.7895634338652142e-06 1.5821488193773598 1.1187456255442745 0.0 0.0 0.0
2 2 1.3701824548621919 0.7910720364701972 3.3562368766328237 0.0 0.0 0.0
ITEM: TIMESTEP energy, energy_weight, force_weight, nsims
10 -136.9219180186119332 1 1 410
ITEM: NUMBER OF ATOMS
2
ITEM: BOX BOUNDS xy xz yz pp pp pp
-1.3753649059748068 2.7507269595784064 -1.3753649059748068
0.0 2.3822005995616804 0.0
0.0 4.4919198824075882 0.0
ITEM: ATOMS id type x y z fx fy fz
1 2 -3.7015192637277298e-06 1.5881369093085862 1.122979970601897 0.0 0.0 0.0
2 2 1.3753671304849169 0.7940660724536936 3.3689399118056911 0.0 0.0 0.0
ITEM: TIMESTEP energy, energy_weight, force_weight, nsims
11 -136.9451314989257184 1 1 410
ITEM: NUMBER OF ATOMS
2
ITEM: BOX BOUNDS xy xz yz pp pp pp
-1.3805305502316976 2.7610611004633952 -1.3805305502316976
0.0 2.3911484880397951 0.0
0.0 4.5087916581003036 0.0
ITEM: ATOMS id type x y z fx fy fz
1 2 -2.7610611006009608e-06 1.5941021802245144 1.1271979145250759 0.0 0.0 0.0
2 2 1.3805346918233483 0.797048698963769 3.3815937435752277 0.0 0.0 0.0
ITEM: TIMESTEP energy, energy_weight, force_weight, nsims
12 -136.9656797766755008 1 1 410
ITEM: NUMBER OF ATOMS
2
ITEM: BOX BOUNDS xy xz yz pp pp pp
-1.3856762278901356 2.7713553081514788 -1.3856762278901356
0.0 2.4000621480634199 0.0
0.0 4.5256035339976616 0.0
ITEM: ATOMS id type x y z fx fy fz
1 2 -1.820563004149513e-06 1.6000446321251438 1.1314008834994154 0.0 0.0 0.0
2 2 1.3856822865034275 0.8000199160004238 3.3942026504982463 0.0 0.0 0.0
ITEM: TIMESTEP energy, energy_weight, force_weight, nsims
13 -136.9836809485392452 1 1 410
ITEM: NUMBER OF ATOMS
2
ITEM: BOX BOUNDS xy xz yz pp pp pp
-1.390804791321328 2.781609582642656 -1.390804791321328
0.0 2.4089444320037608 0.0
0.0 4.5423498053572446 0.0
ITEM: ATOMS id type x y z fx fy fz
1 2 -2.7816095827351028e-06 1.6059661665950836 1.1355874513393112 0.0 0.0 0.0
2 2 1.3908089637357022 0.8029806743531096 3.4067623540179333 0.0 0.0 0.0
ITEM: TIMESTEP energy, energy_weight, force_weight, nsims
14 -136.9992476689517388 1 1 410
ITEM: NUMBER OF ATOMS
2
ITEM: BOX BOUNDS xy xz yz pp pp pp
-1.3959133881540678 2.7918296286793428 -1.3959133881540678
0.0 2.417795339860819 0.0
0.0 4.5590361769214702 0.0
ITEM: ATOMS id type x y z fx fy fz
1 2 -1.841037324756883e-06 1.6118667836343326 1.1397590442303676 0.0 0.0 0.0
2 2 1.3959194774788406 0.8059309740218262 3.4192771326911027 0.0 0.0 0.0
ITEM: TIMESTEP energy, energy_weight, force_weight, nsims
15 -137.0124883746093192 1 1 410
ITEM: NUMBER OF ATOMS
2
ITEM: BOX BOUNDS xy xz yz pp pp pp
-1.401004870759562 2.802009741519124 -1.401004870759562
0.0 2.4266120192633865 0.0
0.0 4.5756626486903356 0.0
ITEM: ATOMS id type x y z fx fy fz
1 2 -2.8020097416573626e-06 1.6177445816582832 1.1439156621725839 0.0 0.0 0.0
2 2 1.4010090737741745 0.8088698642171224 3.4317469865177524 0.0 0.0 0.0
ITEM: TIMESTEP energy, energy_weight, force_weight, nsims
16 -137.0235061960211172 1 1 410
ITEM: NUMBER OF ATOMS
2
ITEM: BOX BOUNDS xy xz yz pp pp pp
-1.4060763867666033 2.8121556259044144 -1.4060763867666033
0.0 2.4353973225826704 0.0
0.0 4.5922292206638434 0.0
ITEM: ATOMS id type x y z fx fy fz
1 2 -1.861363321888472e-06 1.6236014622515438 1.1480573051659608 0.0 0.0 0.0
2 2 1.406082506580372 0.8117982957284492 3.4441719154978827 0.0 0.0 0.0
ITEM: TIMESTEP energy, energy_weight, force_weight, nsims
17 -137.0324003180698756 1 1 410
ITEM: NUMBER OF ATOMS
2
ITEM: BOX BOUNDS xy xz yz pp pp pp
-1.4111307885463993 2.8222615770927986 -1.4111307885463993
0.0 2.4441512498186713 0.0
0.0 4.6087358928419918 0.0
ITEM: ATOMS id type x y z fx fy fz
1 2 -2.82226157710384e-06 1.629437425414114 1.1521839732104979 0.0 0.0 0.0
2 2 1.4111350219387653 0.8147162685558074 3.4565519196314938 0.0 0.0 0.0
ITEM: TIMESTEP energy, energy_weight, force_weight, nsims
18 -137.0392654357877404 1 1 410
ITEM: NUMBER OF ATOMS
2
ITEM: BOX BOUNDS xy xz yz pp pp pp
-1.4161680760989499 2.8323332998266922 -1.4161680760989499
0.0 2.4528738009713896 0.0
0.0 4.6251826652247816 0.0
ITEM: ATOMS id type x y z fx fy fz
1 2 -3.783125603958776e-06 1.635252471145994 1.1562956663061954 0.0 0.0 0.0
2 2 1.4161704230185703 0.8176237826991962 3.4688869989185864 0.0 0.0 0.0
ITEM: TIMESTEP energy, energy_weight, force_weight, nsims
19 -137.044192162524496 1 1 410
ITEM: NUMBER OF ATOMS
2
ITEM: BOX BOUNDS xy xz yz pp pp pp
-1.4211853970530475 2.842370794106095 -1.4211853970530475
0.0 2.4615649760408242 0.0
0.0 4.6415723901834198 0.0
ITEM: ATOMS id type x y z fx fy fz
1 2 -2.8423707941443422e-06 1.641046599447184 1.160393097545855 0.0 0.0 0.0
2 2 1.4211896606092389 0.820520838158616 3.481179292637565 0.0 0.0 0.0
ITEM: TIMESTEP energy, energy_weight, force_weight, nsims
20 -137.047328935464094 1 1 410
ITEM: NUMBER OF ATOMS
2
ITEM: BOX BOUNDS xy xz yz pp pp pp
-1.4263282223402778 2.8526564446805556 -1.4263282223402778
0.0 2.4704729313220334 0.0
0.0 4.6583671518535326 0.0
ITEM: ATOMS id type x y z fx fy fz
1 2 -2.8526564447704494e-06 1.6469852481785976 1.1645917879633832 0.0 0.0 0.0
2 2 1.4263325013249448 0.8234901536163672 3.49377536389015 0.0 0.0 0.0
ITEM: TIMESTEP energy, energy_weight, force_weight, nsims
21 -137.0485746649385988 1 1 410
ITEM: NUMBER OF ATOMS
2
ITEM: BOX BOUNDS xy xz yz pp pp pp
-1.431168696279507 2.862337392559014 -1.431168696279507
0.0 2.4788560503010518 0.0
0.0 4.6741778454570362 0.0
ITEM: ATOMS id type x y z fx fy fz
1 2 -2.8623373925677514e-06 1.6525740053421014 1.1685444613642593 0.0 0.0 0.0
2 2 1.4311729897855961 0.8262845238150004 3.5056333840927772 0.0 0.0 0.0
ITEM: TIMESTEP energy, energy_weight, force_weight, nsims
22 -137.0481938439688464 1 1 410
ITEM: NUMBER OF ATOMS
2
ITEM: BOX BOUNDS xy xz yz pp pp pp
-1.4361346745518686 2.8722693491037372 -1.4361346745518686
0.0 2.4874588018630522 0.0
0.0 4.6903935757720144 0.0
ITEM: ATOMS id type x y z fx fy fz
1 2 -2.8722693491860274e-06 1.6583091845204374 1.1725983939430036 0.0 0.0 0.0
2 2 1.4361389829558926 0.8291521048014168 3.5177951818290106 0.0 0.0 0.0
ITEM: TIMESTEP energy, energy_weight, force_weight, nsims
23 -137.0462015747797296 1 1 410
ITEM: NUMBER OF ATOMS
2
ITEM: BOX BOUNDS xy xz yz pp pp pp
-1.4410835385969847 2.8821642248227622 -1.4410835385969847
0.0 2.4960273249705618 0.0
0.0 4.7065579634052552 0.0
ITEM: ATOMS id type x y z fx fy fz
1 2 -3.8329565288523186e-06 1.6640215446834744 1.1766394908513138 0.0 0.0 0.0
2 2 1.4410859602629924 0.8320082763144122 3.5299184725539416 0.0 0.0 0.0
ITEM: TIMESTEP energy, energy_weight, force_weight, nsims
24 -137.0426718718792076 1 1 410
ITEM: NUMBER OF ATOMS
2
ITEM: BOX BOUNDS xy xz yz pp pp pp
-1.4460152884148556 2.8920277244585036 -1.4460152884148556
0.0 2.5045701767372034 0.0
0.0 4.7226624512431378 0.0
ITEM: ATOMS id type x y z fx fy fz
1 2 -3.8428200285913916e-06 1.6697167905850384 1.1806656128107844 0.0 0.0 0.0
2 2 1.4460177248761128 0.8348558907223422 3.5419968384323536 0.0 0.0 0.0
ITEM: TIMESTEP energy, energy_weight, force_weight, nsims
25 -137.0376754844291724 1 1 410
ITEM: NUMBER OF ATOMS
2
ITEM: BOX BOUNDS xy xz yz pp pp pp
-1.4509299240054812 2.901856995639755 -1.4509299240054812
0.0 2.5130845047917694 0.0
0.0 4.7387155963992846 0.0
ITEM: ATOMS id type x y z fx fy fz
1 2 -3.852649299758915e-06 1.6753930206405192 1.1846788990998212 0.0 0.0 0.0
2 2 1.4509323752106452 0.8376939972357548 3.5540366972994636 0.0 0.0 0.0
ITEM: TIMESTEP energy, energy_weight, force_weight, nsims
26 -137.031280848638204 1 1 410
ITEM: NUMBER OF ATOMS
2
ITEM: BOX BOUNDS xy xz yz pp pp pp
-1.4558274453688612 2.9116548907377222 -1.4558274453688612
0.0 2.521567456763052 0.0
0.0 4.75471169413128 0.0
ITEM: ATOMS id type x y z fx fy fz
1 2 -2.911654890788101e-06 1.6810483332653104 1.18867792353282 0.0 0.0 0.0
2 2 1.4558318128511972 0.8405216450651984 3.5660337705984602 0.0 0.0 0.0
ITEM: TIMESTEP energy, energy_weight, force_weight, nsims
27 -137.0235535435371616 1 1 410
ITEM: NUMBER OF ATOMS
2
ITEM: BOX BOUNDS xy xz yz pp pp pp
-1.4607107048762038 2.9214185573812 -1.4607107048762038
0.0 2.5300218850222592 0.0
0.0 4.770656449181539 0.0
ITEM: ATOMS id type x y z fx fy fz
1 2 -3.8722108615018942e-06 1.6866846300440198 1.1926641122953847 0.0 0.0 0.0
2 2 1.4607131854237104 0.843339785000125 3.5779923368861546 0.0 0.0 0.0
ITEM: TIMESTEP energy, energy_weight, force_weight, nsims
28 -137.0145569712596796 1 1 410
ITEM: NUMBER OF ATOMS
2
ITEM: BOX BOUNDS xy xz yz pp pp pp
-1.465573997785093 2.9311508479413942 -1.465573997785093
0.0 2.5384506419405986 0.0
0.0 4.7865470091788548 0.0
ITEM: ATOMS id type x y z fx fy fz
1 2 -1.9803585438211934e-06 1.6923038125612554 1.1966367522947137 0.0 0.0 0.0
2 2 1.465580296091695 0.8461493678299854 3.5899102568841412 0.0 0.0 0.0
ITEM: TIMESTEP energy, energy_weight, force_weight, nsims
29 -137.004352220985908 1 1 410
ITEM: NUMBER OF ATOMS
2
ITEM: BOX BOUNDS xy xz yz pp pp pp
-1.4704230288379448 2.9408489100470972 -1.4704230288379448
0.0 2.5468508751468622 0.0
0.0 4.8023862264944342 0.0
ITEM: ATOMS id type x y z fx fy fz
1 2 -1.9900566061417778e-06 1.6979039792324082 1.2005965566236083 0.0 0.0 0.0
2 2 1.4704293416916396 0.848949442765329 3.6017896698708256 0.0 0.0 0.0
ITEM: TIMESTEP energy, energy_weight, force_weight, nsims
30 -136.9929979328866808 1 1 410
ITEM: NUMBER OF ATOMS
2
ITEM: BOX BOUNDS xy xz yz pp pp pp
-1.4752577980347588 2.9505155960695176 -1.4752577980347588
0.0 2.55522258464105 0.0
0.0 4.8181712487570706 0.0
ITEM: ATOMS id type x y z fx fy fz
1 2 -2.9505155961051668e-06 1.7034851300574798 1.2045428121892676 0.0 0.0 0.0
2 2 1.4752622238081532 0.8517400098061552 3.6136284365678032 0.0 0.0 0.0
ITEM: TIMESTEP energy, energy_weight, force_weight, nsims
31 -136.9805508423476112 1 1 410
ITEM: NUMBER OF ATOMS
2
ITEM: BOX BOUNDS xy xz yz pp pp pp
-1.4800754530043274 2.9601509060086548 -1.4800754530043274
0.0 2.5635657704231628 0.0
0.0 4.8339077807091774 0.0
ITEM: ATOMS id type x y z fx fy fz
1 2 -2.9601509061413376e-06 1.709047265036469 1.2084769451772943 0.0 0.0 0.0
2 2 1.4800798932306864 0.854521068952464 3.6254308355318834 0.0 0.0 0.0
ITEM: TIMESTEP energy, energy_weight, force_weight, nsims
32 -136.9670653718009136 1 1 410
ITEM: NUMBER OF ATOMS
2
ITEM: BOX BOUNDS xy xz yz pp pp pp
-1.4848788461178578 2.9697548398645082 -1.4848788461178578
0.0 2.571883284864407 0.0
0.0 4.8495901176083418 0.0
ITEM: ATOMS id type x y z fx fy fz
1 2 -3.9205471439258716e-06 1.7145922857539846 1.2123975294020857 0.0 0.0 0.0
2 2 1.4848813991697888 0.8572935709937074 3.637192588206256 0.0 0.0 0.0
ITEM: TIMESTEP energy, energy_weight, force_weight, nsims
33 -136.9525943110059532 1 1 410
ITEM: NUMBER OF ATOMS
2
ITEM: BOX BOUNDS xy xz yz pp pp pp
-1.4896651250041436 2.9793273976370784 -1.4896651250041436
0.0 2.5801751279647834 0.0
0.0 4.8652239641969768 0.0
ITEM: ATOMS id type x y z fx fy fz
1 2 -3.9301197019943066e-06 1.7201201922100264 1.2163059910492442 0.0 0.0 0.0
2 2 1.48966769241491 0.8600575159298852 3.648917973147733 0.0 0.0 0.0
ITEM: TIMESTEP energy, energy_weight, force_weight, nsims
34 -136.9371880007125244 1 1 410
ITEM: NUMBER OF ATOMS
2
ITEM: BOX BOUNDS xy xz yz pp pp pp
-1.4944342896631836 2.9888714316975738 -1.4944342896631836
0.0 2.588438447353084 0.0
0.0 4.8808064681038764 0.0
ITEM: ATOMS id type x y z fx fy fz
1 2 -2.0380791277770434e-06 1.7256290828199858 1.2202016170259693 0.0 0.0 0.0
2 2 1.4944406745506612 0.8628119529715456 3.660604851077907 0.0 0.0 0.0
ITEM: TIMESTEP energy, energy_weight, force_weight, nsims
35 -136.9208951489975448 1 1 410
ITEM: NUMBER OF ATOMS
2
ITEM: BOX BOUNDS xy xz yz pp pp pp
-1.499192044837393 2.998384089674786 -1.499192044837393
0.0 2.5966760954005164 0.0
0.0 4.8963404817002464 0.0
ITEM: ATOMS id type x y z fx fy fz
1 2 -2.998384089775421e-06 1.7311208591684718 1.2240851204250616 0.0 0.0 0.0
2 2 1.4991965424135276 0.8655578329081406 3.6722553612751856 0.0 0.0 0.0
ITEM: TIMESTEP energy, energy_weight, force_weight, nsims
36 -136.903762287040536 1 1 410
ITEM: NUMBER OF ATOMS
2
ITEM: BOX BOUNDS xy xz yz pp pp pp
-1.5039326857843574 3.0078653715687147 -1.5039326857843574
0.0 2.6048880721070816 0.0
0.0 4.9118231526148808 0.0
ITEM: ATOMS id type x y z fx fy fz
1 2 -3.0078653716354609e-06 1.7365955212554838 1.2279557881537202 0.0 0.0 0.0
2 2 1.5039371975824148 0.8682951557396698 3.683867364461161 0.0 0.0 0.0
ITEM: TIMESTEP energy, energy_weight, force_weight, nsims
37 -136.8858340412360236 1 1 410
ITEM: NUMBER OF ATOMS
2
ITEM: BOX BOUNDS xy xz yz pp pp pp
-1.508659064875284 3.017318129750568 -1.508659064875284
0.0 2.613074377472778 0.0
0.0 4.9272601855901942 0.0
ITEM: ATOMS id type x y z fx fy fz
1 2 -3.0173181298354179e-06 1.7420530690810224 1.2318150463975486 0.0 0.0 0.0
2 2 1.5086635908524786 0.8710239214661336 3.6954451391926466 0.0 0.0 0.0
ITEM: TIMESTEP energy, energy_weight, force_weight, nsims
38 -136.8671534053054586 1 1 410
ITEM: NUMBER OF ATOMS
2
ITEM: BOX BOUNDS xy xz yz pp pp pp
-1.5133711821101728 3.0267395118491383 -1.5133711821101728
0.0 2.6212350114976064 0.0
0.0 4.9426458758837724 0.0
ITEM: ATOMS id type x y z fx fy fz
1 2 -3.9775318159948574e-06 1.7474935026450864 1.2356614689709433 0.0 0.0 0.0
2 2 1.5133738206391112 0.8737441300875316 3.706984406912829 0.0 0.0 0.0
ITEM: TIMESTEP energy, energy_weight, force_weight, nsims
39 -136.8477611960730656 1 1 410
ITEM: NUMBER OF ATOMS
2
ITEM: BOX BOUNDS xy xz yz pp pp pp
-1.5180661851178164 3.0361352226068399 -1.5180661851178164
0.0 2.629369974181567 0.0
0.0 4.9579859282380286 0.0
ITEM: ATOMS id type x y z fx fy fz
1 2 -2.0853429187240491e-06 1.7529168219476772 1.2394964820595072 0.0 0.0 0.0
2 2 1.5180726409009798 0.8764557816038644 3.7184894461785216 0.0 0.0 0.0
ITEM: TIMESTEP energy, energy_weight, force_weight, nsims
40 -136.8276965976900216 1 1 410
ITEM: NUMBER OF ATOMS
2
ITEM: BOX BOUNDS xy xz yz pp pp pp
-1.5227497786406294 3.0454995572812589 -1.5227497786406294
0.0 2.6374792655246596 0.0
0.0 4.9732803426529646 0.0
ITEM: ATOMS id type x y z fx fy fz
1 2 -3.0454995573522048e-06 1.7583230269887936 1.2433200856632412 0.0 0.0 0.0
2 2 1.5227543468899656 0.8791588760151314 3.729960256989723 0.0 0.0 0.0
ITEM: TIMESTEP energy, energy_weight, force_weight, nsims
41 -137.0087982615897036 1 1 410
ITEM: NUMBER OF ATOMS
2
ITEM: BOX BOUNDS xy xz yz pp pp pp
-1.3753649059748068 2.7507269595784064 -1.3753649059748068
0.0 2.3822005995616804 0.0
0.0 4.9732803426529646 0.0
ITEM: ATOMS id type x y z fx fy fz
1 2 -3.7015192637277298e-06 1.5881369093085862 1.2433200856632412 0.0 0.0 0.0
2 2 1.3753671304849169 0.7940660724536936 3.729960256989723 0.0 0.0 0.0
ITEM: TIMESTEP energy, energy_weight, force_weight, nsims
42 -137.013472740352910 1 1 410
ITEM: NUMBER OF ATOMS
2
ITEM: BOX BOUNDS xy xz yz pp pp pp
-1.377949154288856 2.755898308577712 -1.377949154288856
0.0 2.386678822357549 0.0
0.0 4.9579859282380286 0.0
ITEM: ATOMS id type x y z fx fy fz
1 2 -2.7558983086255676e-06 1.5911223971434628 1.2394964820595072 0.0 0.0 0.0
2 2 1.377953288136319 0.795558811892909 3.7184894461785216 0.0 0.0 0.0
ITEM: TIMESTEP energy, energy_weight, force_weight, nsims
43 -137.017755921828126 1 1 410
ITEM: NUMBER OF ATOMS
2
ITEM: BOX BOUNDS xy xz yz pp pp pp
-1.3805305502316976 2.7610611004633952 -1.3805305502316976
0.0 2.3911484880397951 0.0
0.0 4.9426458758837724 0.0
ITEM: ATOMS id type x y z fx fy fz
1 2 -2.7610611006009608e-06 1.5941021802245144 1.2356614689709433 0.0 0.0 0.0
2 2 1.3805346918233483 0.797048698963769 3.706984406912829 0.0 0.0 0.0
ITEM: TIMESTEP energy, energy_weight, force_weight, nsims
44 -137.0216691668200612 1 1 410
ITEM: NUMBER OF ATOMS
2
ITEM: BOX BOUNDS xy xz yz pp pp pp
-1.3831062414321243 2.7662124828642486 -1.3831062414321243
0.0 2.395609596608419 0.0
0.0 4.9272601855901942 0.0
ITEM: ATOMS id type x y z fx fy fz
1 2 -2.7662124829645386e-06 1.5970762585517414 1.2318150463975486 0.0 0.0 0.0
2 2 1.3831103907508489 0.798535733666274 3.6954451391926466 0.0 0.0 0.0
ITEM: TIMESTEP energy, energy_weight, force_weight, nsims
45 -137.02524893835826 1 1 410
ITEM: NUMBER OF ATOMS
2
ITEM: BOX BOUNDS xy xz yz pp pp pp
-1.3856762278901356 2.7713553081514788 -1.3856762278901356
0.0 2.4000621480634199 0.0
0.0 4.9118231526148808 0.0
ITEM: ATOMS id type x y z fx fy fz
1 2 -1.820563004149513e-06 1.6000446321251438 1.2279557881537202 0.0 0.0 0.0
2 2 1.3856822865034275 0.8000199160004238 3.683867364461161 0.0 0.0 0.0
ITEM: TIMESTEP energy, energy_weight, force_weight, nsims
46 -137.0285315634163228 1 1 410
ITEM: NUMBER OF ATOMS
2
ITEM: BOX BOUNDS xy xz yz pp pp pp
-1.3882433619769395 2.776486723953879 -1.3882433619769395
0.0 2.4045089947760055 0.0
0.0 4.8963404817002464 0.0
ITEM: ATOMS id type x y z fx fy fz
1 2 -2.7764867240316096e-06 1.6030092025293302 1.2240851204250616 0.0 0.0 0.0
2 2 1.3882475267070256 0.8015021967556702 3.6722553612751856 0.0 0.0 0.0
ITEM: TIMESTEP energy, energy_weight, force_weight, nsims
47 -137.0315337768921324 1 1 410
ITEM: NUMBER OF ATOMS
2
ITEM: BOX BOUNDS xy xz yz pp pp pp
-1.390804791321328 2.781609582642656 -1.390804791321328
0.0 2.4089444320037608 0.0
0.0 4.8808064681038764 0.0
ITEM: ATOMS id type x y z fx fy fz
1 2 -2.7816095827351028e-06 1.6059661665950836 1.2202016170259693 0.0 0.0 0.0
2 2 1.3908089637357022 0.8029806743531096 3.660604851077907 0.0 0.0 0.0
ITEM: TIMESTEP energy, energy_weight, force_weight, nsims
48 -137.0342546263931356 1 1 410
ITEM: NUMBER OF ATOMS
2
ITEM: BOX BOUNDS xy xz yz pp pp pp
-1.3933633682945093 2.7867238842178108 -1.3933633682945093
0.0 2.4133741644891012 0.0
0.0 4.8652239641969768 0.0
ITEM: ATOMS id type x y z fx fy fz
1 2 -3.7375161884105936e-06 1.6089193274916208 1.2163059910492442 0.0 0.0 0.0
2 2 1.393365646800006 0.8044572503716456 3.648917973147733 0.0 0.0 0.0
ITEM: TIMESTEP energy, energy_weight, force_weight, nsims
49 -137.0367026834524608 1 1 410
ITEM: NUMBER OF ATOMS
2
ITEM: BOX BOUNDS xy xz yz pp pp pp
-1.3959133881540678 2.7918296286793428 -1.3959133881540678
0.0 2.417795339860819 0.0
0.0 4.8495901176083418 0.0
ITEM: ATOMS id type x y z fx fy fz
1 2 -1.841037324756883e-06 1.6118667836343326 1.2123975294020857 0.0 0.0 0.0
2 2 1.3959194774788406 0.8059309740218262 3.637192588206256 0.0 0.0 0.0
ITEM: TIMESTEP energy, energy_weight, force_weight, nsims
50 -137.0389118260341376 1 1 410
ITEM: NUMBER OF ATOMS
2
ITEM: BOX BOUNDS xy xz yz pp pp pp
-1.3984634080136263 2.7969239636560448 -1.3984634080136263
0.0 2.4222079581189142 0.0
0.0 4.8339077807091774 0.0
ITEM: ATOMS id type x y z fx fy fz
1 2 -3.7477162677925544e-06 1.6148085350232202 1.2084769451772943 0.0 0.0 0.0
2 2 1.3984657018192419 0.807401845303652 3.6254308355318834 0.0 0.0 0.0
ITEM: TIMESTEP energy, energy_weight, force_weight, nsims
51 -137.0409206940650508 1 1 410
ITEM: NUMBER OF ATOMS
2
ITEM: BOX BOUNDS xy xz yz pp pp pp
-1.401004870759562 2.802009741519124 -1.401004870759562
0.0 2.4266120192633865 0.0
0.0 4.8181712487570706 0.0
ITEM: ATOMS id type x y z fx fy fz
1 2 -2.8020097416573626e-06 1.6177445816582832 1.2045428121892676 0.0 0.0 0.0
2 2 1.4010090737741745 0.8088698642171224 3.6136284365678032 0.0 0.0 0.0
ITEM: TIMESTEP energy, energy_weight, force_weight, nsims
52 -137.042739763863466 1 1 410
ITEM: NUMBER OF ATOMS
2
ITEM: BOX BOUNDS xy xz yz pp pp pp
-1.4035434811342902 2.8070869622685804 -1.4035434811342902
0.0 2.4310075232942361 0.0
0.0 4.8023862264944342 0.0
ITEM: ATOMS id type x y z fx fy fz
1 2 -2.8070869623886084e-06 1.620674923539522 1.2005965566236083 0.0 0.0 0.0
2 2 1.4035476917647338 0.8103350307622376 3.6017896698708256 0.0 0.0 0.0
ITEM: TIMESTEP energy, energy_weight, force_weight, nsims
53 -137.044340463652418 1 1 410
ITEM: NUMBER OF ATOMS
2
ITEM: BOX BOUNDS xy xz yz pp pp pp
-1.4060763867666033 2.8121556259044144 -1.4060763867666033
0.0 2.4353973225826704 0.0
0.0 4.7865470091788548 0.0
ITEM: ATOMS id type x y z fx fy fz
1 2 -1.861363321888472e-06 1.6236014622515438 1.1966367522947137 0.0 0.0 0.0
2 2 1.406082506580372 0.8117982957284492 3.5899102568841412 0.0 0.0 0.0
ITEM: TIMESTEP energy, energy_weight, force_weight, nsims
54 -137.0456781670374368 1 1 410
ITEM: NUMBER OF ATOMS
2
ITEM: BOX BOUNDS xy xz yz pp pp pp
-1.408606440027709 2.817212880055418 -1.408606440027709
0.0 2.4397785647574821 0.0
0.0 4.770656449181539 0.0
ITEM: ATOMS id type x y z fx fy fz
1 2 -2.817212880085457e-06 1.6265222962097414 1.1926641122953847 0.0 0.0 0.0
2 2 1.4086106658470292 0.813258708326306 3.5779923368861546 0.0 0.0 0.0
ITEM: TIMESTEP energy, energy_weight, force_weight, nsims
55 -137.0467245743538172 1 1 410
ITEM: NUMBER OF ATOMS
2
ITEM: BOX BOUNDS xy xz yz pp pp pp
-1.4111307885463993 2.8222615770927986 -1.4111307885463993
0.0 2.4441512498186713 0.0
0.0 4.75471169413128 0.0
ITEM: ATOMS id type x y z fx fy fz
1 2 -2.82226157710384e-06 1.629437425414114 1.18867792353282 0.0 0.0 0.0
2 2 1.4111350219387653 0.8147162685558074 3.5660337705984602 0.0 0.0 0.0
ITEM: TIMESTEP energy, energy_weight, force_weight, nsims
56 -137.0474716582926932 1 1 410
ITEM: NUMBER OF ATOMS
2
ITEM: BOX BOUNDS xy xz yz pp pp pp
-1.4136522846938822 2.8273017170165566 -1.4136522846938822
0.0 2.4485153777662379 0.0
0.0 4.7387155963992846 0.0
ITEM: ATOMS id type x y z fx fy fz
1 2 -3.7780940211469982e-06 1.6323468498646626 1.1846788990998212 0.0 0.0 0.0
2 2 1.4136546240661281 0.8161709764169534 3.5540366972994636 0.0 0.0 0.0
ITEM: TIMESTEP energy, energy_weight, force_weight, nsims
57 -137.0479240447608904 1 1 410
ITEM: NUMBER OF ATOMS
2
ITEM: BOX BOUNDS xy xz yz pp pp pp
-1.4161680760989499 2.8323332998266922 -1.4161680760989499
0.0 2.4528738009713896 0.0
0.0 4.7226624512431378 0.0
ITEM: ATOMS id type x y z fx fy fz
1 2 -3.783125603958776e-06 1.635252471145994 1.1806656128107844 0.0 0.0 0.0
2 2 1.4161704230185703 0.8176237826991962 3.5419968384323536 0.0 0.0 0.0
ITEM: TIMESTEP energy, energy_weight, force_weight, nsims
58 -137.0480973802076508 1 1 410
ITEM: NUMBER OF ATOMS
2
ITEM: BOX BOUNDS xy xz yz pp pp pp
-1.4186781627616025 2.837356325523205 -1.4186781627616025
0.0 2.4572236670629182 0.0
0.0 4.7065579634052552 0.0
ITEM: ATOMS id type x y z fx fy fz
1 2 -2.8373563255391714e-06 1.6381523876735016 1.1766394908513138 0.0 0.0 0.0
2 2 1.4186824187960907 0.8190737366130838 3.5299184725539416 0.0 0.0 0.0
ITEM: TIMESTEP energy, energy_weight, force_weight, nsims
59 -137.0480199642977652 1 1 410
ITEM: NUMBER OF ATOMS
2
ITEM: BOX BOUNDS xy xz yz pp pp pp
-1.4211853970530475 2.842370794106095 -1.4211853970530475
0.0 2.4615649760408242 0.0
0.0 4.6903935757720144 0.0
ITEM: ATOMS id type x y z fx fy fz
1 2 -2.8423707941443422e-06 1.641046599447184 1.1725983939430036 0.0 0.0 0.0
2 2 1.4211896606092389 0.820520838158616 3.5177951818290106 0.0 0.0 0.0
ITEM: TIMESTEP energy, energy_weight, force_weight, nsims
60 -137.0477313893506732 1 1 410
ITEM: NUMBER OF ATOMS
2
ITEM: BOX BOUNDS xy xz yz pp pp pp
-1.4236869266020775 2.847373853204155 -1.4236869266020775
0.0 2.465900580276315 0.0
0.0 4.6741778454570362 0.0
ITEM: ATOMS id type x y z fx fy fz
1 2 -2.8473738533488154e-06 1.6439370080516504 1.1685444613642593 0.0 0.0 0.0
2 2 1.4236911976628577 0.8219660381252448 3.5056333840927772 0.0 0.0 0.0
ITEM: TIMESTEP energy, energy_weight, force_weight, nsims
61 -137.0472517916663548 1 1 410
ITEM: NUMBER OF ATOMS
2
ITEM: BOX BOUNDS xy xz yz pp pp pp
-1.4262569130600891 2.8525138261201782 -1.4262569130600891
0.0 2.4703502793601082 0.0
0.0 4.6574372788398676 0.0
ITEM: ATOMS id type x y z fx fy fz
1 2 -2.852513826153357e-06 1.6469034800404448 1.1643593197099669 0.0 0.0 0.0
2 2 1.4262611918308286 0.823449269669943 3.4930779591299008 0.0 0.0 0.0
ITEM: TIMESTEP energy, energy_weight, force_weight, nsims
62 -137.0466415801446092 1 1 410
ITEM: NUMBER OF ATOMS
2
ITEM: BOX BOUNDS xy xz yz pp pp pp
-1.4286785762153074 2.8573571524306148 -1.4286785762153074
0.0 2.4745461174064288 0.0
0.0 4.6415723901834198 0.0
ITEM: ATOMS id type x y z fx fy fz
1 2 -2.8573571524813506e-06 1.6497007109991094 1.160393097545855 0.0 0.0 0.0
2 2 1.4286828622510359 0.8248478809534372 3.481179292637565 0.0 0.0 0.0
ITEM: TIMESTEP energy, energy_weight, force_weight, nsims
63 -137.0458498698112352 1 1 410
ITEM: NUMBER OF ATOMS
2
ITEM: BOX BOUNDS xy xz yz pp pp pp
-1.431168696279507 2.862337392559014 -1.431168696279507
0.0 2.4788560503010518 0.0
0.0 4.6251826652247816 0.0
ITEM: ATOMS id type x y z fx fy fz
1 2 -2.8623373925677514e-06 1.6525740053421014 1.1562956663061954 0.0 0.0 0.0
2 2 1.4311729897855961 0.8262845238150004 3.4688869989185864 0.0 0.0 0.0
ITEM: TIMESTEP energy, energy_weight, force_weight, nsims
64 -137.0448772048906108 1 1 410
ITEM: NUMBER OF ATOMS
2
ITEM: BOX BOUNDS xy xz yz pp pp pp
-1.4336531116012914 2.8673062232025828 -1.4336531116012914
0.0 2.4831602784532594 0.0
0.0 4.6087358928419918 0.0
ITEM: ATOMS id type x y z fx fy fz
1 2 -2.8673062233062324e-06 1.6554434965158776 1.1521839732104979 0.0 0.0 0.0
2 2 1.4336574125606265 0.8277192650976604 3.4565519196314938 0.0 0.0 0.0
ITEM: TIMESTEP energy, energy_weight, force_weight, nsims
65 -137.0436901155868556 1 1 410
ITEM: NUMBER OF ATOMS
2
ITEM: BOX BOUNDS xy xz yz pp pp pp
-1.4361346745518686 2.8722693491037372 -1.4361346745518686
0.0 2.4874588018630522 0.0
0.0 4.5922292206638434 0.0
ITEM: ATOMS id type x y z fx fy fz
1 2 -2.8722693491860274e-06 1.6583091845204374 1.1480573051659608 0.0 0.0 0.0
2 2 1.4361389829558926 0.8291521048014168 3.4441719154978827 0.0 0.0 0.0
ITEM: TIMESTEP energy, energy_weight, force_weight, nsims
66 -137.0422388053744668 1 1 410
ITEM: NUMBER OF ATOMS
2
ITEM: BOX BOUNDS xy xz yz pp pp pp
-1.4386105327600305 2.877221065520061 -1.4386105327600305
0.0 2.4917459157880142 0.0
0.0 4.5756626486903356 0.0
ITEM: ATOMS id type x y z fx fy fz
1 2 -2.8772210655595646e-06 1.661167266186564 1.1439156621725839 0.0 0.0 0.0
2 2 1.4386148485916293 0.8305811413473662 3.4317469865177524 0.0 0.0 0.0
ITEM: TIMESTEP energy, energy_weight, force_weight, nsims