ITEM: TIMESTEP energy, energy_weight, force_weight, nsims
0 -4353.7663459138048 1 1 381
ITEM: NUMBER OF ATOMS
64
ITEM: BOX BOUNDS xy xz yz pp pp pp
-1.0817951958936194 10.335096261594499 -0.5408975979468098
-0.5699908939231982 10.3209371797161147 -0.5408975979468098
0.0 10.3051761579171828 -0.5699908939231982
ITEM: ATOMS id type x y z fx fy fz
1 2 0.0514425051537652 -0.0261942612291129 0.11451008694916 0.9087527044405888 1.4030914738336575 -0.2552813473483537
2 2 -0.2239031152779314 -0.2610677425654989 2.5977154091587584 0.4294366404177407 1.4662048855408376 0.4805306536986756
3 2 -0.4176464332424924 -0.2715909480970819 5.223986461451104 1.0675430781561552 1.2651414432095119 0.1833441627612579
4 2 -0.2964754806318209 -0.554111982312526 7.8324347115783334 0.4313122610115514 1.5524186410275252 0.0704096915167972
5 2 -0.2600691860623001 2.6190038537155044 0.1024983736194917 1.3718165610123934 -1.4129539728546283 0.0940826202260397
6 2 -0.1910086245728844 2.5532963110615108 2.6415412623231478 -1.2168157379386604 -0.7154935921304458 -0.7804024059769786
7 2 -0.475019837133804 2.4545010184715844 5.0198275250337607 0.2251109809384686 -1.3836662665542088 1.4587075453742142
8 2 -0.677905985742235 2.0809141909159861 7.8415764333480222 0.1717096586501511 -0.5933895344764358 -0.7626802981921702
9 2 -0.1237519477423151 5.0122032945415347 0.1084856809672416 -0.9871523597097176 1.664115382657373 -0.4176314149804805
10 2 -0.4861893835775566 5.054010471570189 2.55134726903621 -0.4468702702990187 0.7710348445355946 0.3593151696940433
11 2 -0.4633710965602218 4.8613463730753966 5.1136355435992806 -1.3292030781860509 1.564838617505197 0.3683538868942368
12 2 -0.625184828018597 4.6507942446020296 7.8154950630099496 0.756937479606378 0.6972757754347576 -0.232136780574722
13 2 -0.5346357910231844 7.891436324955973 -0.0489310374330224 1.9576645323280816 -1.6052489210486932 0.330205383811844
14 2 -0.4167074360046261 7.7025560106939102 2.6646671081391308 0.0572016715682509 -1.3177637208920381 -0.5466957091108504
15 2 -0.596489296378533 7.6013329911890174 5.1654592439798295 -0.8398864468408096 -0.8510260133723296 0.4035911285669356
16 2 -0.968913725020708 7.4257908431820639 7.7041703060112018 0.7633480139813582 -2.1682379752795402 -0.2797130089393419
17 2 2.6933649021772408 -0.0072201125655588 0.1104024437326142 -1.0765496565524797 -0.9244133007900068 -0.7549752127973358
18 2 2.5199578637156336 -0.004392161660575 2.5397755867284846 -0.4332573014217197 -0.729133814713426 1.1091510020870361
19 2 2.4454526790445623 -0.4018023423611643 5.2001835655615487 -1.78073244660439 0.759871109623565 0.0860954846884486
20 2 2.2606007524741538 -0.4280399581491618 7.853320212097585 -0.0715432914068741 0.6928177376724434 -0.1265083593362547
21 2 2.524620495547128 2.4838151447433106 0.0724732123657842 -0.7022832581880208 0.517610091609161 0.0479289838758891
22 2 2.1957505919273075 2.4702432149743228 2.5945465674901982 1.0824469985072751 0.4043064097858501 0.3890363641810514
23 2 2.1354347504618359 2.1445642454457508 5.2273067892091856 -0.7664955598770988 0.0910805988342189 0.0088723667513662
24 2 1.896010646822456 2.1738531733926929 7.8521196590751884 0.1883678434716712 0.2357463539148875 -0.269027756539318
25 2 2.3051312139558844 5.1271212918271925 -0.0983680590153985 0.805607455744277 -0.824056157606962 0.725094609843136
26 2 2.0635537116525233 5.0297230531751378 2.6275385889597702 0.5883614828886962 -0.3714150436851771 -0.1498760979639547
27 2 1.8963586131758632 4.84732411154413 5.2615745914871077 1.5720446515535492 -0.2291059628146343 -0.2147460881354134
28 2 2.046379810411187 4.78886735813286 7.7824741870471366 -0.251751478241784 0.3042439151566785 -0.551606518342075
29 2 2.2722109286860817 7.6138788475049194 0.0069106511314993 -0.665728068446251 0.6860989278907492 -0.0493284359515726
30 2 2.1899096067909412 7.5193678213290012 2.47567739102624 -0.0659169438463041 0.7925256770173292 0.7714158821942686
31 2 1.8492541258072818 7.5138524543131854 5.1496593478945112 0.688782132348187 -1.3628945719478532 -0.1382811888592148
32 2 1.821757005264685 7.3884179627746667 7.8440579197668488 -1.1513227691929999 -0.1959988810623907 -0.6731958409133146
33 2 5.1081603148645254 -0.025540652226642 0.1301976566143572 1.4688682924950918 -0.1904182991585307 -0.68910094928257
34 2 5.0959618757053518 -0.2628143787945546 2.6732935711009228 -0.1105919381080373 1.9468836348477428 -0.1176287934928218
35 2 4.818638020467775 -0.3345342660837465 5.089972798105471 1.3115444766776878 0.5249027718727448 0.0858589430919708
36 2 4.7748884895088538 -0.3953936253338415 7.5763871521706446 0.7461992624575774 -1.275175434887929 0.8244017140261642
37 2 5.0415757934875884 2.5975280628586482 0.058852861037865 0.7472161342120012 -0.8258266200345122 -0.6361315725182556
38 2 4.8102235211889148 2.4371081220728415 2.6260206365117092 -0.6043797198475714 -1.3520026027613421 0.0799508024990751
39 2 4.6128623891025828 2.3020041663655273 5.233535237679031 0.8255898213276034 0.2188804238651563 -1.2794694361952943
40 2 4.6238484078007494 2.0207428629973148 7.6089123491602626 -0.7182726987786292 0.7792415523812206 1.4523132089563844
41 2 4.9439973544452522 5.0205260887729022 0.1373525404207992 -0.8853798236042698 0.7808785744951056 0.1229828611070113
42 2 4.8827633120391472 4.8888761282026644 2.6758708956580186 -1.1582377542335118 1.3144963615354726 0.4519942240775042
43 2 4.6122677610754686 4.9121347499304768 5.2607852149934118 -0.1103119448487283 4.9853712562011934e-04 0.2892934578175559
44 2 4.543748548009166 4.6556617389327926 7.8768458987484938 0.8214102341620126 -0.1433184964224688 0.0631869452904328
45 2 4.8560628094883472 7.6133335722557804 -0.1169843597446759 0.2807522493012587 -0.1094403404877936 0.7294490321017758
46 2 4.7316903577797476 7.7473576200570618 2.4461149321820228 -0.9367036936104776 -2.0014828346338756 0.0457391743354525
47 2 4.4556935180875144 7.4626939100353412 5.1513710376543411 -0.1195254971419707 -0.1343103753635588 -0.0909630993672728
48 2 4.2901883147062528 7.2778359035479392 7.805290877578381 0.549424422114567 0.1287681029139109 -1.351104258915588
49 2 7.8915825198637748 0.0687757565813223 0.1318104166830713 -0.563520501491629 -0.1433922871161526 -1.75760459200877
50 2 7.6265827584644842 -0.1133034624793808 2.4527020007821636 -0.5463272698632932 0.3230955090646686 1.3926743876131189
51 2 7.475700533098487 -0.383322106621959 5.0590861241249616 -1.1809195222314262 0.8499392075806864 -0.1508253496750374
52 2 7.487703831353004 -0.3493224995814716 7.7198527230883204 -0.1942348463956143 0.143844544364201 0.1963531792362456
53 2 7.6822745535602488 2.5793675094221458 -0.0732801076589491 -1.3369801545015525 0.3432897336431013 0.7495121303604218
54 2 7.3377904383823269 2.5759415396875888 2.6868088096320314 0.7418075591864494 -1.9435435132392172 -0.2437651140354859
55 2 7.3344359002050732 2.3471999251366804 5.2477285568013299 -0.5280449184494356 -1.4840298374980282 0.3694705174958707
56 2 7.166891794374501 2.1732548920082668 7.7723617176833716 -0.5673208507715624 -0.5337766812866968 -0.3065738498819851
57 2 7.4294461286133071 5.2131448648754777 0.1178128959077724 1.0243156156206941 0.1426170991668258 -1.1970943394427525
58 2 7.3296208379900838 4.896298045420493 2.520824367774075 0.4348781255784547 1.902306342549772 0.106768191778887
59 2 7.2825079341325108 4.7541550052230548 5.0183992276182732 -0.2469347714282887 1.265259199786889 0.3225373223190671
60 2 7.1932950734306527 4.6034255595347666 7.6986982574713476 -0.4768184932965594 1.3045029933051464 -0.0929863013484511
61 2 7.4507624047471418 7.775109828214835 -0.021478048148331 -1.384602662743744 0.2192370360328898 0.0233003756947899
62 2 7.1000091763113025 7.588776447967077 2.5650892214427922 1.7734063419847816 -0.4598633459272872 -0.6763169044346672
63 2 7.0336480474778309 7.4700030205962662 5.0147099745537389 0.4858713515704554 -1.2220013982205749 0.879505878698691
64 2 6.8891279422569722 7.3955100418475066 7.6783115274781402 -0.8231138478775148 -0.5536842277346156 -0.2797765152157876
ITEM: TIMESTEP energy, energy_weight, force_weight, nsims
1 -4353.7046165897299968 1 1 381
ITEM: NUMBER OF ATOMS
64
ITEM: BOX BOUNDS xy xz yz pp pp pp
-1.0448282089218557 10.3546758198074987 -0.5224141044609278
-0.549470872378085 10.3414839628130633 -0.5224141044609278
0.0 10.3268838699071353 -0.549470872378085
ITEM: ATOMS id type x y z fx fy fz
1 2 -0.0521156739158275 -0.1046833796223743 -0.1407430348861904 1.2054727970562558 0.2705729902293525 0.5304242183774854
2 2 -0.1901816458605248 -0.1464882452735119 2.5503582211638758 0.8155175201949742 0.912246578086825 -0.8781925586173772
3 2 -0.2714528530119832 -0.326847401231879 5.0727181947796591 -1.404621023787404 0.2130648430274042 0.1656061141297303
4 2 -0.5239788644105996 -0.4669817588516052 7.682354794733576 1.9508619045458968 -0.1514041052551153 -0.5456762662521172
5 2 -0.1771430457348252 2.4324724240078659 0.1541225456280421 1.691596888180339 0.4227296577158705 -1.4956458296581062
6 2 -0.3168494624730183 2.5058380491696894 2.4938113031574254 -0.3028290364551377 -1.1175135188538203 1.4311072548321469
7 2 -0.3647048763346846 2.3033127630952906 5.0379238249567813 0.723310520562745 -0.834802345179122 0.492262602663114
8 2 -0.6342185207645354 2.1546216365547899 7.8118962586860788 0.6886672039855504 -0.3722023158247587 -0.006983119304715
9 2 -0.3426743107341522 5.2599456624659968 0.1419781301970313 1.1241796209971691 -0.1152026994663383 -1.9029820287623196
10 2 -0.3210156229154518 4.8984190470584732 2.4328971459623912 -0.3480159375849007 1.2114120480112969 1.8592388027023644
11 2 -0.4523928161670978 4.7748870118136484 5.1037164020919592 -0.267917296588027 0.8272926637118128 -0.0224146302601529
12 2 -0.6387037962908388 4.6928929066359322 7.7968809695392328 0.014678691613604 0.0824393743602805 0.1861674924035655
13 2 -0.508997270952783 7.7861668599943964 -0.1095703032364887 0.9078214504596728 -0.4106529236635226 0.0802793896298346
14 2 -0.5523884495172384 7.6971670467430426 2.6560590410143102 -0.6968122053277472 -0.844327515314681 -0.8662700908236018
15 2 -0.612964709820376 7.469664314808349 5.1362595112311986 -0.8677032243657402 -0.6280315655014758 -0.0735078722097948
16 2 -0.7390767241649684 7.2596524824161888 7.5973283963906964 -0.5499211594671706 -0.0594259339064354 0.488504419493857
17 2 2.6863872586699636 0.0769589509228513 0.0613458209407964 -0.646096401490746 -0.0499419014398292 -0.4161491733460298
18 2 2.3493435480204341 -0.1948935860771819 2.55146526311473 0.1943076086475742 0.7492385648618866 0.647746279126179
19 2 2.1687005304184433 -0.3019893609712514 5.2755485208685045 1.1980901281418379 0.8046710595547418 -0.622651015512898
20 2 2.3476150307655073 -0.3685340780695888 7.748478864840978 -1.8642360010383896 0.1876101390316493 0.8006837909915048
21 2 2.5031818683465664 2.7041238652531586 -0.007338283677956 -1.2716663917262665 -0.5896205526690788 -0.2730566769923697
22 2 2.278953915875515 2.4070952646020994 2.5170416284227818 0.0409762036020266 -0.1429698546780949 0.2664779923955455
23 2 2.3157336685799108 2.3119506264241845 5.1566850548374879 -1.0688990785690076 -0.3260913598061465 -0.2328109241246838
24 2 2.0298470726952425 2.204447864134484 7.7194210790078338 -0.9767442723542622 -0.4763117286371488 0.1047182503128895
25 2 2.4510805782351768 5.1594463127146026 0.1387086387638187 -0.7067017009439682 0.1962899300702309 -1.2219597463307603
26 2 2.2780188501213092 5.0552961293942937 2.5471444949035608 0.2315482547982679 0.225680480543032 1.5683078085500618
27 2 2.1088502055096865 4.8464574331366048 5.2853828123778177 -0.5949797624918874 0.8076175450934766 -1.3612824895457707
28 2 2.0500499121048628 4.7144151559444368 7.692129190316443 -0.9943447669052292 0.6797994652219412 1.3845016183443788
29 2 2.0749563967701579 7.6319696984315738 0.0338763098468434 -0.5640648042739588 0.5756319454521558 -0.011397705404198
30 2 1.956503627906547 7.7260571523564376 2.6501479326871756 1.2368718942156709 -1.0225086435119479 -0.6338985684254188
31 2 1.8058914449758772 7.5812091992070796 5.1018658245024726 1.1175178897311466 -1.109904335649732 0.8392027902049024
32 2 1.8369136699421744 7.4266148500556826 7.7965061036547558 0.0480562535392114 -0.4419455771045227 -0.0952367889505929
33 2 5.1815827818907421 -0.127675235896971 0.0984492819969857 0.9827004925977462 1.5654415414657844 -1.3490741149527741
34 2 5.0190022532148504 -0.2271268545298928 2.5020180777688404 -0.0568324609894007 0.3439677338495274 0.7457624318353864
35 2 5.0733376283404708 -0.3556312506836356 5.0575655580773447 -2.7590468923604888 0.8217928144832724 0.2510997032993152
36 2 4.7045798341956182 -0.3182545207560931 7.7406211389043672 1.9435095746623312 0.5371278586437532 0.1993760265729737
37 2 4.9281511110811848 2.6705203181618234 -0.1109530729866693 1.4760902673901632 -0.4167510688648934 -0.0386532108583558
38 2 4.9381709496998286 2.585520261496055 2.5354813122608878 -0.5312109762962052 -1.7647887716704912 0.0530426532371364
39 2 4.7189972055844366 2.3413019908882045 5.1445344432761546 1.6393335366594246 -0.715699280475209 -0.8533119822139432
40 2 4.5265953632499746 2.2756462508612909 7.6085898632508294 0.6293556842208896 -0.7161106571647358 0.313944691716579
41 2 4.9211799635387746 5.3314120555528248 -0.1363169324595482 0.762535287909112 -0.0434555194877176 1.2802757345067666
42 2 4.9374958729980456 4.9406086095128022 2.471274944488127 -1.2585992682938832 1.0368775170562523 0.1197180728547553
43 2 4.5752802811498628 4.8657171429629314 5.3049016555803288 0.9727202369993986 0.5553952976526156 -0.607158569385324
44 2 4.4933606306701278 4.721506989310675 7.8374201848589404 0.5972708735421198 0.998098836307591 -0.8158671903810718
45 2 4.6304836334389218 7.8175869260204368 0.1383255113722451 0.3380274544527625 -0.3400498851026479 -1.7654546876866624
46 2 4.7562074697911214 7.4846116359915112 2.4786793202228506 -1.853414737220391 -0.0896821752002592 1.2513055595885756
47 2 4.4877424426608564 7.5301919443475054 5.0888363951238107 -0.1962961007205738 -1.0160461728299153 -0.6157733114848742
48 2 4.3905567558986496 7.502836141222879 7.616384595195835 -0.6279773152005444 -0.767942063161647 0.7381457924288002
49 2 7.8484875254708966 0.0292470909432259 -0.146126439447573 -1.1100845700618309 -0.5182708654167132 0.6787170303076244
50 2 7.7649540346857684 -0.1729002990698956 2.7216461131604772 -1.0515315260684848 -0.6033245386389356 -0.6879542367605146
51 2 7.3497305724573679 -0.2100254126861805 5.1952539007148166 2.2329603840636314 -0.2119199302783653 -0.0139153307441011
52 2 7.462695052512772 -0.3494415624901177 7.6565840560362234 -1.595693926103144 0.4577223873687318 0.2247808511451234
53 2 7.7865112674860494 2.5177240818494632 0.0283018579338675 -1.5191104989182756 0.2184351085987438 -0.2694473607626352
54 2 7.4337789760056046 2.3521899050262452 2.5947534949206066 0.159331076951863 0.4291389065386958 -0.0050231664895515
55 2 7.4622414840840198 2.2951479737649865 5.1877596810904247 -0.4771956742987692 0.9017269048043354 -0.306024662001467
56 2 7.2348236746365702 2.2389373311071643 7.6794684306919372 -1.076523945509384 0.283386602776815 0.6551027227766394
57 2 7.5483977292424164 5.0298387013502719 -0.0123313320290561 -0.8609782439337034 0.2131062378067878 0.139345626043365
58 2 7.3197942151363478 5.0980222538976801 2.6790126057919532 1.775726763624143 -1.596798986735385 -1.3162310856131203
59 2 7.2814666193344966 5.0395543121265725 5.0685998334923399 -0.2008055605690788 -0.7401247714158544 1.2172173444318109
60 2 7.0296908338009727 4.8836144862857918 7.7201708107767892 0.4205077093715647 0.0702456550618484 -0.2845286873111134
61 2 7.4299212394981016 7.7381017537117822 -0.0114969198123676 -1.4316752117741247 -0.3443341162136371 0.4370656211250127
62 2 7.1045222056436126 7.45888889858497 2.7030556568178708 1.4465025132168201 1.4898096799858772 -0.1814947674314046
63 2 7.1445890416961717 7.5369806752859114 5.2890942944406625 0.1743167584200263 0.7030414768489046 -0.3606030358426926
64 2 6.8310687187374334 7.4666115027140344 7.7142152968490132 0.9921657560028928 -0.2134566793241783 0.98050271263395
ITEM: TIMESTEP energy, energy_weight, force_weight, nsims
2 -4357.7555194505412160 1 1 381
ITEM: NUMBER OF ATOMS
64
ITEM: BOX BOUNDS xy xz yz pp pp pp
-0.6670252485376962 10.550524319662399 -0.3335126242688481
-0.3442214064533055 10.5452490575025682 -0.3335126242688481
0.0 10.539636178564507 -0.3442214064533055
ITEM: ATOMS id type x y z fx fy fz
1 2 -0.0873938187529565 0.0125048101885522 0.0316347179899614 0.551528099660634 0.5683683186672698 0.5137814601818226
2 2 0.0659727770240707 -0.0880014182418422 2.7571667163852394 -0.3351236492455662 0.7455240904658918 -0.4748503129476054
3 2 -0.2714299291464847 -0.3291073008841508 5.2628756309314335 -0.0672762866947588 0.5296963387474542 0.4670624379940038
4 2 -0.3361997125299166 -0.1331922530490303 7.9918424967573056 0.3737400933122955 0.135043911423071 -0.3248909112040215
5 2 -0.079720166014314 2.764631768119811 -0.0618855817496772 0.6910344197233454 -1.5213255052809456 -0.3595897636343023
6 2 -0.22508654506916 2.6362536865458042 2.5196317739380776 -0.175283236529983 -0.161776711371099 0.5760980866634756
7 2 -0.3893637924277666 2.5945689364849814 5.3630780600082826 1.8717675368923298 -1.0053128407793028 -0.7588640080655176
8 2 -0.322508017305615 2.4731551060429006 7.8513417687517162 0.9005670796503012 -0.0347212210377738 0.5092887125113296
9 2 -0.2786738705043377 5.152512844147342 0.0450495669180383 0.6484589892407838 1.4140186671492095 -0.4857553947660952
10 2 -0.1885947256526002 5.3305754749146015 2.5109428978724688 0.1548115897965507 -0.0074050375219108 0.9404582772337012
11 2 -0.4350471735979714 5.0664999897737717 5.2404399073981223 1.3665712511104977 0.585709388793404 -0.1190871238571938
12 2 -0.46990139700636 5.0523369978845958 8.0150887183127466 -0.156655585807354 0.365553697190715 -0.4396390394284329
13 2 -0.1810596749061178 7.9868863568720796 -0.0224768281144067 -0.758541591585101 -0.6448861826922448 0.3599926556796074
14 2 -0.2288683773801474 7.9251890630648444 2.5964298869168054 -1.7399099950400736 -0.1572978476638775 0.5409521191937656
15 2 -0.5097267892338388 7.6612381324596078 5.4204632171097114 0.4732220325883726 -0.3399282718688066 -0.4862765576096392
16 2 -0.584432234915503 7.7255807587019856 7.9989145926331222 1.0745475376266396 0.2079550303226212 -0.1591773249141524
17 2 2.7510848796257008 -0.0967423177485517 0.0087563297371514 -0.876870496781411 -0.1215864943564992 0.6053233151291732
18 2 2.6309274645896506 0.0245792387025138 2.7066808051262976 -0.0155407828885933 -0.3324576711870025 -0.255178503175972
19 2 2.369623322001543 -0.1867703100638238 5.2440075742445673 0.1952098091497924 0.5419450796781106 0.5796824631814076
20 2 2.2322648180644804 -0.3823091034484444 8.0157390138649642 0.3359458884037576 0.0171996593891096 -0.713826488096139
21 2 2.667469501808423 2.5296781081303492 -0.006762230572167 -1.709180670553294 0.0155474677597982 0.0920787015271829
22 2 2.3920142060997991 2.54666810738755 2.573730672479031 0.1569404641648512 0.4830763040755528 0.3612977482271308
23 2 2.3646232132092449 2.5545375759816822 5.3488232020767726 -0.5551299596878708 -0.3662931467901392 -0.1255565365208624
24 2 2.3752978182815983 2.3505602123021876 8.0036468892772987 -0.9861038633722864 -0.0947235965304084 -0.484903330797913
25 2 2.616958930893393 5.2413876254593728 0.1491000171636807 -1.2380299195966884 -0.4296667542534447 0.005996329470713
26 2 2.4118921441953689 5.2314235813412644 2.6739720982097408 -0.618028941295635 0.0315356227982517 0.3046442360976741
27 2 2.4382364798285448 5.1471477264193322 5.2108382852270063 -1.9427001910256876 0.3438178384682811 0.8937999331075878
28 2 2.209902325399737 5.0001492933283442 8.0532632805515068 -0.2699453836673934 -0.3248867974371262 -0.2612041432358138
29 2 2.3477106780053738 7.827792871220356 0.005660838591507 0.7271329813397406 -0.0276789663339393 -1.0135740560362909
30 2 2.1775251020464372 7.873066906955903 2.523656860994671 1.3129135897225188 0.1731111676092822 0.7850548192250942
31 2 2.267184133806242 7.797806555793513 5.3561429794027866 -0.960422130865999 0.0710992616926162 -1.3755732015190647
32 2 2.272554252189476 7.5469806780369454 7.7645162459127014 -1.6438543093668916 -0.1645776724059136 0.9515929586670332
33 2 5.2455812005204727 -0.0576653765205558 0.1386699932013732 0.8797879288414478 -0.0032611887062226 -1.978873057556629
34 2 5.1211606701450432 -0.0675171856105928 2.5004401504205292 0.4733001941593828 0.0150934107387331 1.3213663522505681
35 2 5.1945461034331606 -0.2709167800719641 5.1285648312535139 -0.7831326616432808 0.3194044317178906 -0.3140675905025751
36 2 5.0425616866625216 -0.2097294146197273 7.7801528501472196 -0.1134134679773283 -0.4438811044287456 0.1397924839723634
37 2 5.0472143404002319 2.6219427450001498 0.084192721721609 1.6864942745676228 0.1158164220650259 0.1537348113117147
38 2 5.1556083360494585 2.6886651037951382 2.6683692276172152 -0.2198774981163966 -1.7452782037279656 0.6443318526031078
39 2 4.960224451864958 2.5860933784805736 5.3245040455583537 0.7591817965581768 -0.9427049081793788 0.4282279642818252
40 2 4.8275017266526934 2.218202328091885 8.0341022219788769 1.2667476120716823 0.9319103838461992 -0.1846004043268999
41 2 5.044361385411368 5.2909401131320051 -0.1103795017708704 1.1896268240861201 -0.4326320088536391 0.1796551422979275
42 2 4.881699973969572 5.0333142184338158 2.4957405266485076 0.7729379759455174 1.3952999993340227 -0.487108566964207
43 2 4.8012909526516676 5.0752757672164393 5.1178407514418245 2.007846317799991 0.2684045208546851 0.1488628257555643
44 2 4.8332024590101996 4.9651753155121004 7.9226128965184044 -0.3419000517637941 -0.0074695722400803 -1.16037408480431
45 2 5.0844269401165096 7.8259611420292208 -0.0850685654880477 -0.9848705046349994 0.1730890561122202 1.2649771496441322
46 2 4.924379599374551 7.7266701227831752 2.6525271004772152 -0.6949324709670414 0.0881114875775602 -0.5339540874840552
47 2 4.746763578486461 7.63600352041055 5.2038684238221213 0.663877901785105 0.0669852376869187 0.7940333725844444
48 2 4.6395201646234404 7.794553177802814 8.0533475976409363 1.6099926084997978 -0.1128568238943125 -1.1102640331426368
49 2 7.9049117665733686 -0.1061756031894754 0.1068329141967834 -0.3727710440980293 1.7326409689361376 -0.2746625887441093
50 2 7.8043362318500042 -0.0136261312466192 2.7670254920666686 0.3058590828839326 -0.2483373088291437 0.2012562751545415
51 2 7.7078780499258484 -0.1777312834692977 5.383859060661556 0.1845484680198471 -0.2345993842824009 -0.5775746718684452
52 2 7.7295757538844008 -0.3049892260723128 7.8316958869148722 -0.6972114978270192 0.0439697403496259 1.2357105263990509
53 2 7.855771875324371 2.7374381366753658 -0.055022170670196 -0.4395937879925849 -0.9659772588371948 -0.5245502734719066
54 2 7.710766103431535 2.6006640408548632 2.526201129168177 0.0844319802001752 -0.0903514336520329 0.0265389386830886
55 2 7.8177271466076964 2.4291811140442552 5.1606738328715105 -1.9389643764639236 -0.2281381991525229 -0.4889739031407794
56 2 7.7059526027240324 2.3601986266941255 7.766197317883182 -0.9323621268733856 0.1972633501618233 0.1423898135458623
57 2 7.7510540080375252 5.244709937271554 0.0500548401392386 -0.7158669164761912 1.0033582872831894 0.2924672289772541
58 2 7.7411853077205298 5.2195536608377582 2.6035894617729048 -0.3430534491570544 -0.2427058190599547 0.0550630270035742
59 2 7.660031793350047 5.0431772021032453 5.156905912937674 -1.3455475882818069 -0.3450504258742754 0.6699189684708038
60 2 7.3543727839438349 5.1106164838196992 8.0608054442008879 0.542396822705297 -0.4201050744366904 -0.7277485037114448
61 2 7.5340750261701004 8.0460603113593407 0.0415725409427298 1.2419837638039015 -1.498073209236744 -0.3531370631486457
62 2 7.4659631298369566 7.7592799492299314 2.6352621224531086 0.794321079156682 0.5671946095499638 0.4600986019716104
63 2 7.4313647262409299 7.5951367218572888 5.4250996030646635 -0.4447565654461445 0.4848256834477648 -1.0418240646373795
64 2 7.4619401943181912 7.6680540638311028 7.8817159462547198 -0.8808744775226602 0.063376949898908 0.950130514535766
ITEM: TIMESTEP energy, energy_weight, force_weight, nsims
3 -4358.1032321254697344 1 1 381
ITEM: NUMBER OF ATOMS
64
ITEM: BOX BOUNDS xy xz yz pp pp pp
-0.6627513906086568 10.5526939463833004 -0.3313756953043284
-0.3419494946386045 10.547491468267733 -0.3313756953043284
0.0 10.5419407512519356 -0.3419494946386045
ITEM: ATOMS id type x y z fx fy fz
1 2 0.1373645825304334 -0.1078325283079032 -0.0337447523447575 -1.0550855635555645 0.5418535483646908 -0.742225106526319
2 2 -0.1628923790083757 -0.1449055607707978 2.4913041183521868 -0.1129519547537656 0.6188884614663148 0.7035808945330466
3 2 -0.163850057912508 -0.2683769432126379 5.4059578185575985 0.7927357362394188 0.6404026909972662 -2.0510881785195858
4 2 -0.2061595757491636 -0.3012221303293284 7.7570941842929884 -0.4305609843323034 0.3605567559651209 1.940831512413513
5 2 -0.1206773612635932 2.6204495006815192 0.0857101950839787 -0.5564661625975396 -0.3728157813130153 -0.3751596000015935
6 2 -0.1825587788747637 2.6720782740519954 2.68601798080411 0.3930984518796962 -0.1188212716715872 -0.1086145017835689
7 2 -0.3281141663519997 2.5505359842972752 5.2346639316786563 0.1557762681334908 -0.385129314072272 -0.0247844171022574
8 2 -0.3998155049097157 2.5104357969630518 7.837363683755247 -0.0157531561045615 -1.3734006183775021 0.3653531510545708
9 2 -0.0432687354354238 5.2641036304248612 0.0867095710671974 -0.3509626802340664 0.0765397184116063 0.0124595714840387
10 2 -0.2640044271787661 5.3378060327044628 2.7413578987778072 -0.0727614806287349 -0.3697682513749157 -0.0595604026618244
11 2 -0.275494830132363 5.2003339899335464 5.343847866233447 -0.5746212443480748 -0.1913379831700537 0.2133363516424918
12 2 -0.3534347170003731 4.9460964076956238 7.9291871502808764 -0.5777469358571846 1.0667491211453688 0.4687297991387414
13 2 -0.1160361405391008 7.9127542508851168 -0.0545239717595501 -1.4324118331588085 -0.3959289806140706 0.0860489477004459
14 2 -0.3144381345895369 7.8556189065732704 2.7275679860810942 0.0362086048808436 0.4115252993557501 -1.4219322691035477
15 2 -0.5238963209320328 7.7329583582460116 5.1291148582948969 1.5536190896296502 -0.1508034952884063 0.8960686755503272
16 2 -0.6375944303840344 7.6421882941229082 7.8172928827589382 1.9362405485583952 -0.5412886767478844 -0.3901676500772498
17 2 2.591108745283294 0.1256949266252343 -0.0510008551604817 0.6774494758830204 -0.8456567762427138 -0.4129630608856458
18 2 2.5103802112544692 -0.0670549789794104 2.5400932743430556 0.0733536059512223 -0.7760870645038438 0.2075896764002353
19 2 2.619385054950203 -0.0776058374989014 5.2472531173238011 -0.531083192412021 -0.3920550977508843 -0.59077960649182
20 2 2.2698917275822957 -0.1191823363270968 7.780454070803689 0.7226114373009808 -0.9294115275677558 0.385089976176336
21 2 2.4815629537656272 2.6229952482799956 0.0256970347752517 0.3670665349664493 0.4700693444840126 -0.1019730822415919
22 2 2.6130114973329436 2.4866323679876294 2.6533358560870788 -1.2958432568801792 0.4456875623166295 0.3605058480997919
23 2 2.3312787349312325 2.4729999635565974 5.3964785054340725 -0.0497981767089258 0.4523850319325546 -0.6414445024634924
24 2 2.3828813656138528 2.3759239938296482 7.9185471694806386 -0.779289117810947 0.5242422551756236 0.8104670999997414
25 2 2.582122599586914 5.2241832691780434 0.01768305141615 -0.820021323613998 -0.2213268296156852 -0.8854237894879632
26 2 2.3617784352746632 5.2320590092220449 2.528925142311179 0.2113530017781114 -1.0601838062909543 0.659362528396688
27 2 2.1808927414167507 5.1548107523144342 5.4013457194789263 1.0668221405077596 -0.1664247537418883 -1.3110487677668084
28 2 2.1323896332368437 5.0029775106228396 7.853502340851339 0.987715174443076 -0.2084227141965268 0.9993363088117734
29 2 2.2980242529234572 7.8078364049475298 0.0952759521216648 1.0046399827814958 0.5038708815102634 0.1401442110419087
30 2 2.3127651389215163 7.7081163543728462 2.745845602955615 0.1903637917471684 0.93985972415044 -0.3338478672871717
31 2 2.3377449200437193 7.7483611598771454 5.2694481193814875 -0.9165079263694592 0.4201161301852215 0.6438744531464402
32 2 2.2586308213579725 7.6108990035917242 7.9543560338244914 -1.4101728093229973 0.624608911444614 0.3211592104091528
33 2 5.1650635821337501 0.1189475877531496 -0.0885544106986665 0.1488656539703048 -0.2086556562469713 0.499981057800358
34 2 5.2708533292898121 -0.1883326123471063 2.6664679516809136 -0.710701310807891 0.8946553395113722 -0.8042776805953822
35 2 5.1402657516031773 -0.0969004264451063 5.2010161651888103 0.640015996909111 -0.2364600924712162 0.3699358873758977
36 2 5.0518503995312978 -0.2459240168822475 7.8654811481269862 0.068526100499627 -0.1506731402999126 -0.2871972364739866
37 2 5.3052871230022607 2.7932958006879782 0.043297859053542 -1.203150061423016 0.0438211305205344 0.0215525389851635
38 2 5.0267736317838363 2.664696654892142 2.7249230131466052 1.0250522370053776 -1.4152401988066728 -0.0999951316962616
39 2 5.036982791406678 2.4361932950395717 5.3278399292026722 -0.2164293901268703 -0.2088217495853677 -0.6653889397878224
40 2 4.859004729590386 2.4770577151925136 7.7945233449303092 0.1733022006594812 -1.1426992853387972 0.7488521278841624
41 2 4.9856871513153962 5.355455092140609 0.062690813259545 0.8465972861991442 -0.038713888920061 0.0952182769995642
42 2 5.1270590171037016 5.0791330417464859 2.7236031621645478 -0.5301144003081856 1.3984305759413205 -0.2174393198996583
43 2 4.9425817948340684 4.9744200442595182 5.3344950563989375 -0.2420447881419716 0.7574509291369934 0.0267906497949927
44 2 5.0148959687629526 4.89660399978181 7.9426618589491272 -0.3294656771019889 1.0206415075623589 0.511333511768708
45 2 4.956945816447364 7.8751706059842538 -0.069814002625166 -0.0887162113111644 0.8820271035846278 -0.0654253487023198
46 2 5.0006750374859292 7.8400032635466018 2.7228230585489556 -0.3698993776947022 -0.8504032919085586 -0.6781994670101136